% Model:              2D_2018_fixed_bottom_liquid__voltage_sweeps__2_wd_0p5mps.mph
% Version:            COMSOL 5.4.0.388
% Date:               Jun 24 2021, 15:10
% Table:              Probe Table 6 - 
% Time (s)               y-fluid_thickness (mm), droplet_gap
0                        0.10000000216351962
9.375E-5                 0.09999929444656558
1.703523452348464E-4     0.09999779016597876
3.235570357045392E-4     0.09998854620439429
4.76761726174232E-4      0.09996819830968831
7.831711071136176E-4     0.09986091034554223
0.0010895804880530031    0.09966332575674346
0.0017023992499317743    0.09873476259996283
0.0023152180118105456    0.09711613903933165
0.003540855535568088     0.09007449267483267
0.0047664930593256305    0.07837139843192834
0.005992130583083173     0.061332300216458774
0.005992130583083173     0.061332300216458774
0.007217768106840715     0.03860327347093764
0.007217768106840715     0.03860327347093764
0.007830586868719486     0.025921440404596402
0.007830586868719486     0.025921440404596402
0.008443405630598257     0.012724585031216162
0.008443405630598257     0.012718192775134068
0.008749815011537643     0.006870071858000853
0.008749815011537643     0.00687028037751761
0.008903019702007336     0.004570401115809152
0.008903019702007336     0.004569701816221298
0.008979622047242182     0.0036703283908950946
0.009056224392477028     0.0030172698307537847
0.009056224392477028     0.003017287305558808
0.009132826737711874     0.0025777159894913547
0.00920942908294672      0.0022591810099909654
0.00920942908294672      0.002259231610210726
0.009347313304369444     0.0019234238752131698
0.009347313304369444     0.0019233278238449218
0.009416255415080807     0.0017400582192211855
0.009416255415080807     0.0017400884542149476
0.00955413963650353      0.0015246574376855983
0.00955413963650353      0.0015246714109395758
0.009623081747214893     0.0014009217444372127
0.009623081747214893     0.0014007105810470537
0.009760965968637616     0.0012836405165854436
0.009760965968637616     0.001282498641649258
0.009829908079348979     0.001201855973536562
0.009912638612202613     0.0011336953578372326
0.009912638612202613     0.001133652979603498
0.0100102606409699       0.00109109421891386
0.010107882669737188     0.001069800605157066
0.010107882669737188     0.0010702225135897359
0.010283602321518306     0.0010961607660631319
0.010283602321518306     0.0010960175645005447
0.010371462147408866     0.001107573349145262
0.010459321973299426     0.0011199891673486714
0.010459321973299426     0.001120261456168635
0.010635041625080544     0.0011489044728085762
0.010635041625080544     0.0011489025207806272
0.010722901450971104     0.0011325872292279604
0.010810761276861664     0.0011217007962376416
0.010898621102752224     0.0011198785482080878
0.010898621102752224     0.0011193115263051327
0.011023030616213257     0.001159137028279491
0.01114744012967429      0.0012059561704234369
0.01114744012967429      0.0012050985422128006
0.011371377253904148     0.0012715104838328939
0.011371377253904148     0.0012722647221631057
0.011819251502363863     0.0014857554622603117
0.011819251502363863     0.0014856912845810817
0.012043188626593721     0.001510652856852486
0.012267125750823579     0.001536983281279214
0.012267125750823579     0.0015370883033917482
0.012379094312938509     0.0015780009129618897
0.012491062875053438     0.001612554309208137
0.012603031437168368     0.0016407081708308055
0.012826968561398226     0.0017026652657705504
0.012826968561398226     0.0017046545849348088
0.013274842809857941     0.001998427612751215
0.013274842809857941     0.0020122421550482043
0.014170591306777372     0.0021020927036723494
0.014170591306777372     0.0020914631316433507
0.014618465555237088     0.0020851928023975057
0.015066339803696803     0.0021158920971002006
0.015066339803696803     0.0021356913318089712
0.015872513450924292     0.0022508792699793903
0.015872513450924292     0.0022390523467109673
0.016275600274538036     0.0022412707457860823
0.01667868709815178      0.002274288279908651
0.01667868709815178      0.0022727383735773356
0.017484860745379267     0.00241566259005831
0.017484860745379267     0.0024158428821919632
0.019097208039834244     0.0026249458585101207
0.019097208039834244     0.0026253556558815047
0.01990338168706173      0.002629642407307991
0.01990338168706173      0.002624865832122694
0.02087079006373472      0.002654711113241146
0.02087079006373472      0.002654723619105546
0.02280560681708069      0.0027982062368041467
0.02280560681708069      0.002797374994605809
0.026675240323772637     0.003027984741138523
0.026675240323772637     0.0030283949226418694
0.028610057077118608     0.00308829825267044
0.028610057077118608     0.003088340947976498
0.032479690583810554     0.0032875718681828377
0.032479690583810554     0.003287652315038178
0.040218957597194446     0.0036514549413202077
0.040218957597194446     0.0036511365498399263
0.04408859110388639      0.003790794344106594
0.04408859110388639      0.003790864913271255
0.05182785811727028      0.004065118178977166
0.05182785811727028      0.004065095377616106
0.06182785811727028      0.004367190082704697
0.06182785811727028      0.004366823844299209
0.07182785811727029      0.00464396354509216
0.07182785811727029      0.004643988894585931
0.08182785811727028      0.004844205783434939
0.08182785811727028      0.004844428948672097
0.09182785811727028      0.00503376321236591
0.10182785811727027      0.0051710753790575915
0.10182785811727027      0.005171297488534236
0.11182785811727027      0.005292760093126084
0.12182785811727026      0.005386292188616203
0.12182785811727026      0.005386344888134997
0.13182785811727027      0.005476882828500326
0.14182785811727028      0.005534063813912669
0.1518278581172703       0.005572070739602239
0.1518278581172703       0.005572052916248769
0.1618278581172703       0.005633062688634345
0.1718278581172703       0.005674920042665534
0.1818278581172703       0.005700643446037313
0.19182785811727032      0.005711827610463058
0.19182785811727032      0.005711889429528116
0.20182785811727033      0.005755135845881502
0.21182785811727034      0.005782117656767324
0.22182785811727035      0.005794519801943614
0.23182785811727036      0.0057933289724877365
0.24182785811727037      0.00579150250072007
0.24182785811727037      0.0057915468159018026
0.2518278581172704       0.005826758154001393
0.2618278581172704       0.005838942241338102
0.2718278581172704       0.005843746197755229
0.2818278581172704       0.005842067275919471
0.2918278581172704       0.005839737371275688
0.3018278581172704       0.005837463705630607
0.3018278581172704       0.005837278683157136
0.31182785811727043      0.005867480575543881
0.32182785811727044      0.005882070812366844
0.33182785811727045      0.00588652288795611
0.34182785811727046      0.0058831179760793564
0.35182785811727046      0.00587949030079896
0.3618278581172705       0.005876448975676227
0.3718278581172705       0.005870929606739076
0.3818278581172705       0.005869336389306527
0.3918278581172705       0.005867975188792677
0.4018278581172705       0.005864095189933149
0.4018278581172705       0.0058637926792625555
0.4118278581172705       0.005887682830693023
0.4218278581172705       0.005898282619804136
0.43182785811727054      0.005901972124460354
0.44182785811727054      0.005899451211395252
0.45182785811727055      0.005897872240464251
0.46182785811727056      0.0058947783947147815
0.47182785811727057      0.005894087195892645
0.4818278581172706       0.005891092507985269
0.4918278581172706       0.005888029016075467
0.5018278581172706       0.005886836072777502
0.5118278581172706       0.005884579796558258
0.5218278581172706       0.005882517295857214
0.5318278581172706       0.005880243983630382
0.5418278581172706       0.005878432712142119
0.5518278581172706       0.005876511924456096
0.5618278581172707       0.00587454778325355
0.5718278581172707       0.005872356518709168
0.5818278581172707       0.005871039915840339
0.5918278581172707       0.005868979449448648
0.6018278581172707       0.005867376062695419
0.6118278581172707       0.005865733886279735
0.6218278581172707       0.005864074985434051
0.6318278581172707       0.005862817392684929
0.6418278581172707       0.005861482414991001
0.6518278581172707       0.005859713218098715
0.6618278581172707       0.005858453439845212
0.6718278581172707       0.005857357481760077
0.6818278581172708       0.0058562702799514615
0.6918278581172708       0.005854794317616038
0.7018278581172708       0.005853638002143845
0.7118278581172708       0.0058524242944040655
0.7218278581172708       0.0058512958722315225
0.7318278581172708       0.00585005767642522
0.7418278581172708       0.005849176489160571
0.7518278581172708       0.005849713144348307
0.7618278581172708       0.00584773346949544
0.7718278581172708       0.005847282163913992
0.7818278581172708       0.005845577909839757
0.7918278581172709       0.005844410120648021
0.7918278581172709       0.005844255453922847
0.8018278581172709       0.005876701570948183
0.8118278581172709       0.005892308397662839
0.8218278581172709       0.005898548221003157
0.8318278581172709       0.005896493705360474
0.8418278581172709       0.0058946410336950875
0.8518278581172709       0.005893211286545422
0.8618278581172709       0.005892020368560968
0.8718278581172709       0.005890225904759024
0.8818278581172709       0.0058886217385875975
0.8918278581172709       0.005887176686140971
0.901827858117271        0.005885861762427655
0.911827858117271        0.00588464832586939
0.921827858117271        0.00588356020695107
0.931827858117271        0.005882575994818704
0.941827858117271        0.005881671880631975
0.951827858117271        0.005880846682332526
0.961827858117271        0.0058801121369973786
0.971827858117271        0.00587947880018036
0.981827858117271        0.005878961274048168
0.991827858117271        0.005878594929524441
1.001827858117271        0.005878314875481551
1.011827858117271        0.00587796995055569
1.021827858117271        0.005877842537315575
1.031827858117271        0.0058778880486554975
1.041827858117271        0.0058780473547862845
1.051827858117271        0.005878259303324432
1.061827858117271        0.005878468952098901
1.071827858117271        0.005878636845005076
1.0818278581172711       0.005878741995979809
1.0918278581172711       0.005878527511530944
1.1018278581172711       0.005878068107846579
1.1118278581172711       0.005877624098774448
1.1218278581172711       0.0058772296290861975
1.1318278581172712       0.00587688350646258
1.1418278581172712       0.005876549844563254
1.1518278581172712       0.005876152227675922
1.1618278581172712       0.005875565616056833
1.1718278581172712       0.005874620515329554
1.1818278581172712       0.005873130851998497
1.1918278581172712       0.005870946879399808
1.2018278581172712       0.005867405012866672
1.2118278581172712       0.0058628806248735114
1.2218278581172712       0.005857712849580317
1.2318278581172712       0.005851985507967627
1.2418278581172713       0.005845209335079201
1.2518278581172713       0.005837178929646129
1.2618278581172713       0.005828717693826934
1.2718278581172713       0.005819472367189424
1.2818278581172713       0.005808773843313155
1.2918278581172713       0.005798055013173271
1.3018278581172713       0.0057857385107901865
1.3118278581172713       0.005773318460748807
1.3218278581172713       0.005759446604060737
1.3318278581172713       0.005745742747794835
1.3418278581172713       0.005730265342219348
1.3518278581172714       0.005714289616320489
1.3618278581172714       0.005697931737360697
1.3718278581172714       0.005680330671987283
1.3818278581172714       0.005661222037144434
1.3918278581172714       0.005641742231612349
1.4018278581172714       0.005621523938482802
1.4118278581172714       0.005600127556204884
1.4218278581172714       0.0055778533668260875
1.4318278581172714       0.005555252336666722
1.4418278581172714       0.0055316848662756955
1.4518278581172714       0.005505802652932233
1.4618278581172715       0.005480022476778666
1.4718278581172715       0.005454766127574364
1.4818278581172715       0.00542309608928546
1.4818278581172715       0.0054225488677092475
1.4918278581172715       0.005387079020399525
1.5018278581172715       0.005349819460752272
1.5118278581172715       0.005317231950754519
1.5218278581172715       0.005286352739576009
1.5318278581172715       0.005255445306454488
1.5418278581172715       0.005224562876557284
1.5518278581172715       0.005191672231665608
1.5618278581172715       0.005161082929702222
1.5718278581172715       0.005122732505364724
1.5718278581172715       0.00512303234416131
1.5818278581172716       0.005072116125480822
1.5918278581172716       0.005025443225446444
1.6018278581172716       0.0049810755087635605
1.6118278581172716       0.0049423993104045875
1.6218278581172716       0.004904823896258962
1.6318278581172716       0.0048667785683088535
1.6418278581172716       0.004827883349660996
1.6418278581172716       0.004827988985493976
1.6518278581172716       0.00477254313290508
1.6618278581172716       0.004718709699221609
1.6718278581172716       0.004667412574163501
1.6818278581172716       0.004625179527430103
1.6918278581172717       0.004581934212179867
1.6918278581172717       0.004581989844001065
1.7018278581172717       0.004520231041085614
1.7118278581172717       0.004458677919537066
1.7218278581172717       0.004398693334638475
1.7318278581172717       0.004350602448361784
1.7318278581172717       0.004351128552156861
1.7418278581172717       0.004290953818588024
1.7518278581172717       0.004229550377491103
1.7618278581172717       0.004167207258003527
1.7618278581172717       0.004165732378352393
1.7718278581172717       0.0041259499963391955
1.7818278581172717       0.004066884326343542
1.7818278581172717       0.004067189782871669
1.7918278581172717       0.004005761084978961
1.8018278581172718       0.003931219888379193
1.8018278581172718       0.003931052763169688
1.8118278581172718       0.0038814831090916435
1.8218278581172718       0.0038183258707540427
1.8218278581172718       0.0038145636812435962
1.8318278581172718       0.0037570292221282553
1.8318278581172718       0.0037567194883648784
1.8418278581172718       0.003693796277678702
1.8418278581172718       0.003694007521105533
1.8518278581172718       0.003592994320699306
1.8518278581172718       0.0035928735495323674
1.8618278581172718       0.0036025204450704056
1.8618278581172718       0.003602687586184289
1.8718278581172718       0.0034709921006743916
1.8718278581172718       0.0034708642909831756
1.8818278581172718       0.003387787328089538
1.8818278581172718       0.0033876167349084635
1.8918278581172718       0.003321140997793008
1.8918278581172718       0.0033210259043300362
1.9018278581172718       0.0032825445267659764
1.9018278581172718       0.0032829429983277127
1.9118278581172718       0.0031637837673501035
1.9118278581172718       0.0031646661729093153
1.9168278581172717       0.0031003924242704005
1.9218278581172716       0.0030612265744336432
1.9218278581172716       0.003054878732788955
1.9318278581172716       0.002963961217005654
1.9318278581172716       0.002964672684918016
1.9368278581172715       0.0028705340784033334
1.9368278581172715       0.0028704399895351264
1.9468278581172715       0.0028635088757810075
1.9468278581172715       0.0028569651214843325
1.9518278581172714       0.0028761266998790676
1.9518278581172714       0.0028771459501617663
1.9618278581172715       0.002767491342663478
1.9618278581172715       0.002770057716011687
1.9668278581172713       0.0028457832604591136
1.9668278581172713       0.002839586748815473
1.9693278581172713       0.002804896497097826
1.9718278581172712       0.0027409292513631313
1.9718278581172712       0.0027410321532662756
1.9768278581172711       0.002615480624271367
1.9768278581172711       0.0026155462090485596
1.979327858117271        0.0027563225220568303
1.981827858117271        0.0026740585306853255
1.981827858117271        0.0026722613915316877
1.986827858117271        0.0026266707695214546
1.986827858117271        0.0026273765822873267
1.9893278581172709       0.002615900529506516
1.9893278581172709       0.002615768499805108
1.9943278581172708       0.002300915007795879
1.9943278581172708       0.0022953926979833207
1.9968278581172707       0.002385462021478081
1.9968278581172707       0.002385996582747029
1.9980778581172707       0.0023602285632909857
1.9993278581172707       0.0023428969135042
1.9993278581172707       0.0023437793220766265
2.0018278581172706       0.002229421547365884
2.0018278581172706       0.0022319266315381017
2.003077858117271        0.0022238391550136877
2.004327858117271        0.0021933806359187777
2.004327858117271        0.00219918427087247
2.005577858117271        0.002152472536409364
2.005577858117271        0.002152451865485624
2.0070778581172712       0.0023462627079008647
2.0070778581172712       0.0023465835511690507
2.0100778581172714       0.002125367950382359
2.0100778581172714       0.0021250193054721082
2.0115778581172714       0.002096214164149131
2.0115778581172714       0.0020997644601264756
2.0145778581172715       0.0020160663901313235
2.0145778581172715       0.0020186032963246878
2.0149528581172715       0.0019674662030903095
2.0153278581172716       0.0019469284254364227
2.0160778581172716       0.0019202727075348126
2.0160778581172716       0.0019210337908097744
2.0175778581172716       0.001938791480853453
2.0175778581172716       0.0019408879320345108
2.0183278581172717       0.0019386559617340891
2.0190778581172717       0.001915054758500588
2.0190778581172717       0.0019101061943280033
2.0198278581172717       0.0018970579835323083
2.0198278581172717       0.0018996600964155466
2.020727858117272        0.00190745869920253
2.0209528581172718       0.0018985557298234479
2.0209528581172718       0.001912022492377933
2.021852858117272        0.0019132169527657367
2.021852858117272        0.001915314662990445
2.0236528581172717       0.0016379725511182774
2.0236528581172717       0.0016382374334704408
2.0238778581172716       0.001647997093850214
2.0241028581172715       0.0016956846265064364
2.0243053581172714       0.001748831302141908
2.0247103581172716       0.0018470610840684923
2.0247103581172716       0.0018489878096869528
2.0263303581172716       0.0017787740787902385
2.0263303581172716       0.001782001840643175
2.0271403581172716       0.0017436204868604734
2.0271403581172716       0.001739998709630354
2.0287603581172715       0.0017107318802701832
2.0287603581172715       0.0017117866545927549
2.0295703581172715       0.0017285165084426728
2.0295703581172715       0.0017295443941254922
2.0299753581172717       0.0016920159726604468
2.0304613581172717       0.0016544202288133573
2.0304613581172717       0.0016572943481031437
2.0310348381172716       0.0016255214547148018
2.0310348381172716       0.001629748196898921
2.0321817981172714       0.0016748055103859433
2.0321817981172714       0.0016680381080018056
2.0327552781172713       0.001624078349309662
2.0327552781172713       0.0016211554972667998
2.033902238117271        0.0016424389612029397
2.033902238117271        0.0016449624671600882
2.034475718117271        0.0016887878614576211
2.034475718117271        0.0016846490244592366
2.034762458117271        0.0016002144088054192
2.035106546117271        0.001560113844438927
2.035106546117271        0.00155714398326727
2.035512569957271        0.0015494641036591442
2.035918593797271        0.001543690513304205
2.035918593797271        0.0015439458644823413
2.036324617637271        0.0015404249877793048
2.036324617637271        0.0015397768047876494
2.036899547394711        0.0015455360191877349
2.036899547394711        0.001517450993265227
2.037187012273431        0.0014801329767657675
2.037531970127895        0.0014801916216893203
2.037531970127895        0.0014819985995847586
2.0379390203961623       0.0015845172368512267
2.0383460706644296       0.0016228330128147117
2.0383460706644296       0.001673195468672277
2.0387124159058705       0.0014425750307169895
2.0387124159058705       0.0014357377486405414
2.0392311607677507       0.0014550651415423665
2.0393608469832207       0.0014392828116931156
2.0393608469832207       0.0014393149038579786
2.039879591845101        0.0015008706104515518
2.039879591845101        0.0015016588568541635
2.0409170815688613       0.0014959970877502678
2.0409170815688613       0.0015083701763816265
2.0414358264307415       0.0014605881313001744
2.0414358264307415       0.0014279275215461386
2.042473316154502        0.0014510294623557018
2.042473316154502        0.0014408604058027165
2.042992061016382        0.0014580476203887235
2.043121747231852        0.001430453549133761
2.043121747231852        0.0014294932322682363
2.0436404920937323       0.0014248950926153484
2.0436404920937323       0.001425322965926349
2.0438998645246724       0.0014188346682724243
2.0442111114418005       0.001423429218933795
2.0442111114418005       0.001434136595936629
2.0446444916492097       0.0013827979814928087
2.0446444916492097       0.0014017427172486469
2.045511252064028        0.001376167112646185
2.045511252064028        0.0013540497057372078
2.0459446322714374       0.001479528827561579
2.0459446322714374       0.0014695571749039071
2.046811392686256        0.0014610889434757586
2.046811392686256        0.0014610851163479079
2.047244772893665        0.0014031398779890472
2.047244772893665        0.00142318703415115
2.0481115333084836       0.0013061330421059412
2.0481115333084836       0.001307174358870962
2.048544913515893        0.001258357570229577
2.048544913515893        0.0012518978724017187
2.0487616036195972       0.0013404109882428523
2.0489782937233016       0.0014022885354084136
2.0489782937233016       0.0013929032065930838
2.049363530948373        0.0014501646393269736
2.049363530948373        0.001450032553868951
2.0501340053985153       0.0012755176219373006
2.0501340053985153       0.0012476958456647362
2.0505192426235865       0.0012687369270328666
2.0506155519298543       0.0012456105289819497
2.0506155519298543       0.0012594965685835437
2.0510007891549256       0.0012432672838896298
2.0510007891549256       0.0012447670538861914
2.051193407767461        0.0013188646947322018
2.051386026379997        0.0013572706576286953
2.051386026379997        0.0013629784926662107
2.0517119644305986       0.0014165475003898205
2.0517119644305986       0.0014152632639044364
2.052363840531802        0.001422006470225886
2.052363840531802        0.0014264687980890083
2.052689778582404        0.0013277754577750017
2.052689778582404        0.001328180193149557
2.0533416546836074       0.0013078672225644641
2.0533416546836074       0.0013053168369499615
2.053667592734209        0.0013331081255654222
2.053667592734209        0.001329708524934036
2.0543194688354127       0.0013120200230880633
2.0543194688354127       0.0013105106916114218
2.0543398399635753       0.0012969294411763893
2.054360211091738        0.0012851454382562313
2.054400953348063        0.0012590712240435724
2.054482437860713        0.001230926634039533
2.054645406886014        0.0012097081134349215
2.054645406886014        0.001212023598168993
2.0552972829872176       0.0012678643469847192
2.0552972829872176       0.0012704279406931286
2.05531765411538         0.0012561736260898945
2.0553583963717053       0.0012359452455012673
2.0553991386280304       0.0012241843944356748
2.0554806231406806       0.0012011480293233276
2.0556435921659815       0.0011960215397311194
2.0556435921659815       0.0011958741329611694
2.055663963294144        0.0011914061784816868
2.055688408647939        0.0011884237301287327
2.055717254165417        0.0011795410613558988
2.0557512918760414       0.0011753828757080954
2.0557914563745783       0.0011719218028453243
2.0558388504828518       0.0011697221070534891
2.0558947755306143       0.0011698517499419275
2.055960767086974        0.0011774235164595248
2.056038637123479        0.0011844487420140278
2.056038637123479        0.0011853168957898924
2.056065743683186        0.0011826894883619835
2.0561199568026005       0.001190700078180628
2.056174169922015        0.0011925108689653068
2.056282596160844        0.0012101207616565038
2.056282596160844        0.0012116557704827148
2.0563097027205512       0.00120804949781117
2.0563332854274967       0.0012055252197676336
2.056356868134442        0.0012054791807725347
2.0563804508413877       0.0012065902805918904
2.056404033548333        0.0012023819942401197
2.0564276162552786       0.001199929293499262
2.056451198962224        0.0011997306902798884
2.0564747816691695       0.0011983946476539636
2.056498364376115        0.001193793112487171
2.0565219470830605       0.0011918131376633181
2.056545529790006        0.0011923844456299647
2.0565691124969514       0.001189706469396836
2.056597411745286        0.001185483034184167
2.0566308048583206       0.0011855400033522652
2.0566308048583206       0.0011842924635789565
2.0566424290009677       0.0011834005869855446
2.056654053143615        0.0011831890821393555
2.056665677286262        0.0011836228855726348
2.0566889255715566       0.001186805916650064
2.05671682351391         0.0011848747007115953
2.0567497430858874       0.0011863983440242414
2.0567885881808206       0.0011877810291252046
2.0568344253928417       0.0011900203377686672
2.0568885133030266       0.0011911070360373643
2.056952337037045        0.001195195155622407
2.056952337037045        0.0011946679835854804
2.0569745540788564       0.0011968091210255716
2.0570012145290306       0.0012023426534850737
2.057027874979205        0.0012031231550061264
2.05705933431041         0.0012081816757672503
2.0570964563212324       0.0012108872532263712
2.0571402602940028       0.0012175617535204082
2.0571919489818717       0.0012193900179070793
2.0572529416335574       0.0012221313404636204
2.0573249129625464       0.0012236427997876394
2.0573249129625464       0.0012247537052724293
2.0573499661821675       0.0012220875046180767
2.0573750194017886       0.0012217762110750506
2.0574000726214097       0.0012182700313209671
2.05742186892248         0.0012167080915598434
2.05744366522355         0.0012145359815363133
2.0574654615246204       0.0012112882302249377
2.0574872578256906       0.0012092927665868607
2.057509054126761        0.0012046317175930417
2.057530850427831        0.0012007493246225624
2.0575526467289014       0.0011980691450013542
2.0575744430299716       0.0011924878751362437
2.057596239331042        0.0011889442220157365
2.057618035632112        0.0011848845710700322
2.0576398319331823       0.0011796581274306148
2.0576659874944667       0.0011761522387722378
2.0576659874944667       0.0011753806975298847
2.0576750922453497       0.0011733439837591578
2.0576933017471157       0.0011708679833032781
2.0577115112488817       0.0011695914145489275
2.057727353515418        0.0011664855543718107
2.0577431957819545       0.0011645289301424194
2.057759038048491        0.0011633842097297752
2.0577748803150273       0.0011599108588936612
2.0577907225815637       0.0011574804048663893
2.0578065648481          0.001155779648368948
2.0578224071146365       0.0011521222099204927
2.057838249381173        0.001149677183670452
2.0578540916477093       0.001148108349718381
2.0578699339142457       0.0011444809474656786
2.057885776180782        0.0011421091242317695
2.0579047869006257       0.0011399461174563426
2.0579272195500415       0.0011356910681412785
2.057953690076352        0.0011326899160743996
2.0579767194342424       0.0011287987068406627
2.057999748792133        0.0011266538642406947
2.057999748792133        0.0011261702714637604
2.0580055061316056       0.0011254546185106296
2.0580112634710783       0.0011249746719515716
2.058017020810551        0.0011246981393717506
2.058028535489496        0.0011248872681364833
2.0580423531042302       0.0011242516789597076
2.0580586578896165       0.0011238655809168475
2.0580778975363723       0.001124507046069978
2.0581006003195443       0.0011243554544713291
2.058105538174884        0.001124452477455594
2.058110476030224        0.001124676669459531
2.0581154138855635       0.0011250297031954563
2.0581203517409032       0.001124499471508774
2.058125289596243        0.0011240983827471782
2.0581302274515827       0.0011238331046911458
2.0581351653069224       0.0011237019030027433
2.058140103162262        0.0011237043514209476
2.058145041017602        0.0011238395122912907
2.0581499788729416       0.0011241078980727716
2.0581549167282813       0.0011244545285618406
2.058164792438961        0.0011239167390601074
2.0581845438603206       0.001123512386828722
2.0582017275969036       0.0011251499861942953
2.0582189113334866       0.001125160051716062
2.0582360950700695       0.001126722313678219
2.0582532788066525       0.0011276164639602466
2.0582704625432355       0.0011285272335285167
2.0582876462798185       0.001130420637967828
2.0583048300164015       0.0011299521868288372
2.0583220137529845       0.0011310373756118555
2.0583220137529845       0.0011306243268881591
2.0583391974895675       0.0011332024141583012
2.0583563812261505       0.0011346146001926447
2.05837700171005         0.0011369107376086977
2.0583949415310423       0.0011388469362662648
2.0584128813520346       0.001141237349633513
2.058430821173027        0.0011438612219274308
2.058448760994019        0.0011453203334369985
2.0584667008150115       0.001147971062067949
2.058484640636004        0.0011487653686515636
2.058502580456996        0.0011511612953464534
2.0585205202779884       0.0011524160886278861
2.0585384600989807       0.001154299134199354
2.058556399919973        0.0011564165031132355
2.0585743397409653       0.001157674746418355
2.058595867526156        0.0011607386194681553
2.0586212703126816       0.00116239812070814
2.0586512456007813       0.0011653429070335175
2.0586512456007813       0.0011659890254136704