% Model:              2D_2018_fixed_bottom_liquid__voltage_sweeps__2_wd_0p5mps.mph
% Version:            COMSOL 5.4.0.388
% Date:               Jun 24 2021, 15:10
% Table:              Probe Table 5 - 
% Time (s)               Spatial coordinate x (mm), x_center_of_mass
0                        26.800001253802055
9.375E-5                 26.799999714633728
1.703523452348464E-4     26.799997420046182
3.235570357045392E-4     26.79998905390051
4.76761726174232E-4      26.79997676320748
7.831711071136176E-4     26.799939975918686
0.0010895804880530031    26.799893705368444
0.0017023992499317743    26.799784529737767
0.0023152180118105456    26.79967860825856
0.003540855535568088     26.799617079549453
0.0047664930593256305    26.79982101757561
0.005992130583083173     26.80038345055473
0.005992130583083173     26.800380321319484
0.007217768106840715     26.8013653114228
0.007217768106840715     26.801365620370643
0.007830586868719486     26.801966660207633
0.007830586868719486     26.801968376579023
0.008443405630598257     26.802675675583796
0.008443405630598257     26.80267686514893
0.008749815011537643     26.8030542125862
0.008749815011537643     26.80305587877193
0.008903019702007336     26.803249649478836
0.008903019702007336     26.80324992377547
0.008979622047242182     26.803347902719135
0.009056224392477028     26.803446926451667
0.009056224392477028     26.803448643693784
0.009132826737711874     26.803548499881366
0.00920942908294672      26.803649127397886
0.00920942908294672      26.803648474537418
0.009347313304369444     26.803831517546477
0.009347313304369444     26.803832402977864
0.009416255415080807     26.803924277759535
0.009416255415080807     26.803924410478768
0.00955413963650353      26.804109319033763
0.00955413963650353      26.80410866592469
0.009623081747214893     26.80420126961776
0.009623081747214893     26.804201410945204
0.009760965968637616     26.8043876327557
0.009760965968637616     26.804388301659852
0.009829908079348979     26.80448157720114
0.009912638612202613     26.804593823800825
0.009912638612202613     26.804593380422077
0.0100102606409699       26.80472596012371
0.010107882669737188     26.804858877440903
0.010107882669737188     26.804858740313442
0.010283602321518306     26.805098951640232
0.010283602321518306     26.805099853526055
0.010371462147408866     26.805220006565506
0.010459321973299426     26.80534046091254
0.010459321973299426     26.80534017555092
0.010635041625080544     26.805582312089346
0.010635041625080544     26.80558028055946
0.010722901450971104     26.80570161401205
0.010810761276861664     26.805823335044764
0.010898621102752224     26.80594544581043
0.010898621102752224     26.80594534584348
0.011023030616213257     26.806118581463956
0.01114744012967429      26.80629255943071
0.01114744012967429      26.806292540534653
0.011371377253904148     26.80660883662675
0.011371377253904148     26.80660923189849
0.011819251502363863     26.80726080960951
0.011819251502363863     26.80726329614446
0.012043188626593721     26.80759391727995
0.012267125750823579     26.80792979258963
0.012267125750823579     26.807929760044047
0.012379094312938509     26.80809861769284
0.012491062875053438     26.80826869163639
0.012603031437168368     26.80843996942674
0.012826968561398226     26.80878728334072
0.012826968561398226     26.808784500095925
0.013274842809857941     26.809495921668102
0.013274842809857941     26.80949926405563
0.014170591306777372     26.810989454518
0.014170591306777372     26.810988057417795
0.014618465555237088     26.811748031117496
0.015066339803696803     26.812521426608317
0.015066339803696803     26.812522604356992
0.015872513450924292     26.813950504531814
0.015872513450924292     26.813950305527495
0.016275600274538036     26.81467255461633
0.01667868709815178      26.815402543850595
0.01667868709815178      26.815404163152504
0.017484860745379267     26.816889249783586
0.017484860745379267     26.81688916281624
0.019097208039834244     26.81993073053369
0.019097208039834244     26.81993173072458
0.01990338168706173      26.82146587779203
0.01990338168706173      26.82146543630809
0.02087079006373472      26.82331678063599
0.02087079006373472      26.823315802730548
0.02280560681708069      26.82703216797039
0.02280560681708069      26.827031076308025
0.026675240323772637     26.834492349412916
0.026675240323772637     26.834493478165594
0.028610057077118608     26.838230817609514
0.028610057077118608     26.838228803190535
0.032479690583810554     26.84567506131997
0.032479690583810554     26.845677241588923
0.040218957597194446     26.86059552953538
0.040218957597194446     26.860595805462335
0.04408859110388639      26.868082595573238
0.04408859110388639      26.868085433961024
0.05182785811727028      26.882934824035686
0.05182785811727028      26.88293823958572
0.06182785811727028      26.901846520445016
0.06182785811727028      26.901849475154098
0.07182785811727029      26.92035770216919
0.07182785811727029      26.920363582929152
0.08182785811727028      26.938330830979865
0.08182785811727028      26.93833649084176
0.09182785811727028      26.955757759987197
0.10182785811727027      26.972462791014927
0.10182785811727027      26.97248597811385
0.11182785811727027      26.98850332274164
0.12182785811727026      27.003750504618925
0.12182785811727026      27.003765237673438
0.13182785811727027      27.018268467000627
0.14182785811727028      27.03199081007717
0.1518278581172703       27.045192298770512
0.1518278581172703       27.045207492487
0.1618278581172703       27.05742999676811
0.1718278581172703       27.0689850286798
0.1818278581172703       27.0800928756351
0.19182785811727032      27.090268413165493
0.19182785811727032      27.090285611927033
0.20182785811727033      27.099926878688244
0.21182785811727034      27.109038634139807
0.22182785811727035      27.11778578139245
0.23182785811727036      27.12577824013636
0.24182785811727037      27.13323160748435
0.24182785811727037      27.133243925416764
0.2518278581172704       27.14028391528731
0.2618278581172704       27.14692336233524
0.2718278581172704       27.15329092013749
0.2818278581172704       27.15911146413519
0.2918278581172704       27.164542808677332
0.3018278581172704       27.169607959254048
0.3018278581172704       27.16961671611538
0.31182785811727043      27.174435342521907
0.32182785811727044      27.179013192923996
0.33182785811727045      27.183416097147116
0.34182785811727046      27.187448560265796
0.35182785811727046      27.1912077471425
0.3618278581172705       27.19470852491128
0.3718278581172705       27.198060456858904
0.3818278581172705       27.201177727314352
0.3918278581172705       27.204089361853917
0.4018278581172705       27.206794348704534
0.4018278581172705       27.20680054660059
0.4118278581172705       27.209293185423164
0.4218278581172705       27.21167838821886
0.43182785811727054      27.213980585334102
0.44182785811727054      27.216097656191916
0.45182785811727055      27.21807403246817
0.46182785811727056      27.219915647558032
0.47182785811727057      27.221632074241896
0.4818278581172706       27.223276952056594
0.4918278581172706       27.224811793320303
0.5018278581172706       27.226251081938127
0.5118278581172706       27.22759639976227
0.5218278581172706       27.228856245280042
0.5318278581172706       27.230036462258003
0.5418278581172706       27.231142897365807
0.5518278581172706       27.23217994578391
0.5618278581172707       27.233151121433394
0.5718278581172707       27.234059270956557
0.5818278581172707       27.234906891532756
0.5918278581172707       27.23569630445279
0.6018278581172707       27.236429759528054
0.6118278581172707       27.23710944562868
0.6218278581172707       27.237737489090417
0.6318278581172707       27.23831594883035
0.6418278581172707       27.238846814893048
0.6518278581172707       27.239332039273545
0.6618278581172707       27.239773548277945
0.6718278581172707       27.240173234326914
0.6818278581172708       27.2405329342812
0.6918278581172708       27.240854467510516
0.7018278581172708       27.24113959553781
0.7118278581172708       27.241390113542277
0.7218278581172708       27.24160763154488
0.7318278581172708       27.241793999665592
0.7418278581172708       27.241950534981434
0.7518278581172708       27.242065372477494
0.7618278581172708       27.242156212023122
0.7718278581172708       27.242224499737393
0.7818278581172708       27.242279808860143
0.7918278581172709       27.24231559176512
0.7918278581172709       27.242323619309982
0.8018278581172709       27.24247451297235
0.8118278581172709       27.242755008756745
0.8218278581172709       27.243098805656043
0.8318278581172709       27.243497146751523
0.8418278581172709       27.243886189399316
0.8518278581172709       27.24424311666686
0.8618278581172709       27.244553615745815
0.8718278581172709       27.244830075776214
0.8818278581172709       27.245048440510494
0.8918278581172709       27.245208452120714
0.901827858117271        27.24530595146398
0.911827858117271        27.245342270386743
0.921827858117271        27.245320055462297
0.931827858117271        27.245244025310384
0.941827858117271        27.245120024323437
0.951827858117271        27.244954862098005
0.961827858117271        27.24475606996114
0.971827858117271        27.24453205467655
0.981827858117271        27.2442923374669
0.991827858117271        27.24404790830558
1.001827858117271        27.243811363014743
1.011827858117271        27.243596642541828
1.021827858117271        27.24341821430284
1.031827858117271        27.2432897014509
1.041827858117271        27.24322213216155
1.051827858117271        27.243222135438447
1.061827858117271        27.243290521557302
1.071827858117271        27.24342157851598
1.0818278581172711       27.243603201411187
1.0918278581172711       27.243817930869213
1.1018278581172711       27.244044676403814
1.1118278581172711       27.244260894590237
1.1218278581172711       27.24444492217716
1.1318278581172712       27.244578165065334
1.1418278581172712       27.244646857055287
1.1518278581172712       27.24464313857665
1.1618278581172712       27.244565277826496
1.1718278581172712       27.244416987483774
1.1818278581172712       27.244205967491865
1.1918278581172712       27.243941996753556
1.2018278581172712       27.2436350563584
1.2118278581172712       27.24329384901901
1.2218278581172712       27.242924686636123
1.2318278581172712       27.24253096846679
1.2418278581172713       27.242112891186498
1.2518278581172713       27.24166751195075
1.2618278581172713       27.241189011899504
1.2718278581172713       27.240669232332415
1.2818278581172713       27.240098420561157
1.2918278581172713       27.239466209307597
1.3018278581172713       27.238762962846913
1.3118278581172713       27.237980015974987
1.3218278581172713       27.237111693238116
1.3318278581172713       27.23615472639237
1.3418278581172713       27.235108917946683
1.3518278581172714       27.233977027865738
1.3618278581172714       27.232763618323176
1.3718278581172714       27.23147491096578
1.3818278581172714       27.230117714652458
1.3918278581172714       27.228698819709468
1.4018278581172714       27.22722425168546
1.4118278581172714       27.225698832731133
1.4218278581172714       27.22412519799875
1.4318278581172714       27.222505650633792
1.4418278581172714       27.22083863054283
1.4518278581172714       27.219121016139596
1.4618278581172715       27.21734670509662
1.4718278581172715       27.215506938952377
1.4818278581172715       27.213590107021005
1.4818278581172715       27.21358513749823
1.4918278581172715       27.21141315343297
1.5018278581172715       27.20899896970943
1.5118278581172715       27.206428962088275
1.5218278581172715       27.203598587008013
1.5318278581172715       27.200639084636354
1.5418278581172715       27.197606490856156
1.5518278581172715       27.19454189266228
1.5618278581172715       27.191463992360713
1.5718278581172715       27.18838408306777
1.5718278581172715       27.18838135646061
1.5818278581172716       27.185189886994497
1.5918278581172716       27.18182865650695
1.6018278581172716       27.178343085009725
1.6118278581172716       27.174625697820087
1.6218278581172716       27.170768056085084
1.6318278581172716       27.166809758334946
1.6418278581172716       27.16279866008351
1.6418278581172716       27.162792559755154
1.6518278581172716       27.158516185109587
1.6618278581172716       27.153963893245344
1.6718278581172716       27.14923070536769
1.6818278581172716       27.14423354691454
1.6918278581172717       27.139150160695724
1.6918278581172717       27.139144468120165
1.7018278581172717       27.133743781535692
1.7118278581172717       27.127961262274184
1.7218278581172717       27.121931497704193
1.7318278581172717       27.11558334181151
1.7318278581172717       27.11557786662303
1.7418278581172717       27.10883598789004
1.7518278581172717       27.10172153623215
1.7618278581172717       27.09438436184859
1.7618278581172717       27.094370661487382
1.7718278581172717       27.086596162462012
1.7818278581172717       27.07858884559956
1.7818278581172717       27.07858842956374
1.7918278581172717       27.070190666014884
1.8018278581172718       27.06144250722364
1.8018278581172718       27.06143784700431
1.8118278581172718       27.052211575011274
1.8218278581172718       27.04260338955321
1.8218278581172718       27.042593409403803
1.8318278581172718       27.032479205773043
1.8318278581172718       27.032480059937335
1.8418278581172718       27.021720381327953
1.8418278581172718       27.021717208415037
1.8518278581172718       27.01033748806725
1.8518278581172718       27.01033132165965
1.8618278581172718       26.99849744735606
1.8618278581172718       26.998490781064504
1.8718278581172718       26.98592859908443
1.8718278581172718       26.985924234932764
1.8818278581172718       26.972675026863506
1.8818278581172718       26.97267162257253
1.8918278581172718       26.959021863571422
1.8918278581172718       26.959015870240133
1.9018278581172718       26.944727428310998
1.9018278581172718       26.94472259571812
1.9118278581172718       26.92977518761251
1.9118278581172718       26.929765177547985
1.9168278581172717       26.92201493266797
1.9218278581172716       26.91394913092957
1.9218278581172716       26.913947367716823
1.9318278581172716       26.894926843249447
1.9318278581172716       26.894913897551394
1.9368278581172715       26.88482302961214
1.9368278581172715       26.8848155343254
1.9468278581172715       26.863703147570043
1.9468278581172715       26.863703407495525
1.9518278581172714       26.852952399366846
1.9518278581172714       26.85294665715132
1.9618278581172715       26.829909032406224
1.9618278581172715       26.829883101523432
1.9668278581172713       26.81791194635213
1.9668278581172713       26.817916806154567
1.9693278581172713       26.81181257534179
1.9718278581172712       26.805593767212546
1.9718278581172712       26.80558111635245
1.9768278581172711       26.79261671264755
1.9768278581172711       26.792609738488927
1.979327858117271        26.785993312160024
1.981827858117271        26.77922659226576
1.981827858117271        26.7792317702334
1.986827858117271        26.7645584899307
1.986827858117271        26.764547017519213
1.9893278581172709       26.756829416168074
1.9893278581172709       26.7568207345829
1.9943278581172708       26.73924366847593
1.9943278581172708       26.739232123660067
1.9968278581172707       26.729919500124346
1.9968278581172707       26.729927182361948
1.9980778581172707       26.72514011572581
1.9993278581172707       26.72022403889531
1.9993278581172707       26.720218374465944
2.0018278581172706       26.709861475926136
2.0018278581172706       26.709851792763047
2.003077858117271        26.704539917170155
2.004327858117271        26.6990934726646
2.004327858117271        26.699087448612232
2.005577858117271        26.69349789433705
2.005577858117271        26.69350566949074
2.0070778581172712       26.686582388973374
2.0070778581172712       26.686578911288038
2.0100778581172714       26.671677803988693
2.0100778581172714       26.671663187178122
2.0115778581172714       26.663918060822365
2.0115778581172714       26.66391566247019
2.0145778581172715       26.647085034682046
2.0145778581172715       26.647077869376375
2.0149528581172715       26.644951541314686
2.0153278581172716       26.642803304702465
2.0160778581172716       26.638454874393236
2.0160778581172716       26.63846182612954
2.0175778581172716       26.629315110600135
2.0175778581172716       26.629303863658553
2.0183278581172717       26.624632149826
2.0190778581172717       26.619861949515496
2.0190778581172717       26.619857020367306
2.0198278581172717       26.61498526073357
2.0198278581172717       26.614983023344088
2.020727858117272        26.608988036668993
2.0209528581172718       26.60747977254303
2.0209528581172718       26.607482041489273
2.021852858117272        26.60129570105618
2.021852858117272        26.601323548271825
2.0236528581172717       26.588309371563714
2.0236528581172717       26.588280508787584
2.0238778581172716       26.586642493290412
2.0241028581172715       26.58499423759956
2.0243053581172714       26.583502622659466
2.0247103581172716       26.58048724585446
2.0247103581172716       26.580477355013542
2.0263303581172716       26.567868582035114
2.0263303581172716       26.567863341164973
2.0271403581172716       26.56141606828226
2.0271403581172716       26.561419851264603
2.0287603581172715       26.54793698850199
2.0287603581172715       26.547937031424183
2.0295703581172715       26.541043718430604
2.0295703581172715       26.54103521829582
2.0299753581172717       26.53754958858802
2.0304613581172717       26.533311521800393
2.0304613581172717       26.533308320589164
2.0310348381172716       26.528227809540446
2.0310348381172716       26.528229675753686
2.0321817981172714       26.517749433904527
2.0321817981172714       26.517748919682433
2.0327552781172713       26.512426188016562
2.0327552781172713       26.512426986625513
2.033902238117271        26.50145004575396
2.033902238117271        26.501446721321898
2.034475718117271        26.4958732818558
2.034475718117271        26.495873344216516
2.034762458117271        26.493064604680896
2.035106546117271        26.48966330060907
2.035106546117271        26.48966105862322
2.035512569957271        26.485603902058195
2.035918593797271        26.48150309520974
2.035918593797271        26.48149997763651
2.036324617637271        26.477354520124535
2.036324617637271        26.477358008330558
2.036899547394711        26.471396839687277
2.036899547394711        26.471397526990685
2.037187012273431        26.468393093803343
2.037531970127895        26.46475429311823
2.037531970127895        26.464748344680256
2.0379390203961623       26.460407368509767
2.0383460706644296       26.45601991317136
2.0383460706644296       26.45604235332685
2.0387124159058705       26.452054782484584
2.0387124159058705       26.45203188583049
2.0392311607677507       26.44630485371487
2.0393608469832207       26.44486798301356
2.0393608469832207       26.444865567737363
2.039879591845101        26.439038059231127
2.039879591845101        26.43903628561574
2.0409170815688613       26.42705541743536
2.0409170815688613       26.427062012165603
2.0414358264307415       26.420986748290705
2.0414358264307415       26.420983388389693
2.042473316154502        26.40849341407716
2.042473316154502        26.408485925824518
2.042992061016382        26.402153525371286
2.043121747231852        26.400564922148867
2.043121747231852        26.400568183482427
2.0436404920937323       26.39412639523886
2.0436404920937323       26.39412459486716
2.0438998645246724       26.39088136874243
2.0442111114418005       26.386958012485344
2.0442111114418005       26.38696070835321
2.0446444916492097       26.381435216447247
2.0446444916492097       26.381432485974354
2.045511252064028        26.370129702928466
2.045511252064028        26.370123468472123
2.0459446322714374       26.364407783975786
2.0459446322714374       26.36441204049309
2.046811392686256        26.352726163483847
2.046811392686256        26.352722869371085
2.047244772893665        26.346814185880593
2.047244772893665        26.34681819249615
2.0481115333084836       26.334739150098045
2.0481115333084836       26.334733873358218
2.048544913515893        26.328626464581685
2.048544913515893        26.328619618397948
2.0487616036195972       26.325548503820652
2.0489782937233016       26.322460810180225
2.0489782937233016       26.3224664148264
2.049363530948373        26.31692435367654
2.049363530948373        26.316929087684727
2.0501340053985153       26.305633637912806
2.0501340053985153       26.305624025119595
2.0505192426235865       26.299920345826397
2.0506155519298543       26.298490890369255
2.0506155519298543       26.298493109886987
2.0510007891549256       26.29272059504891
2.0510007891549256       26.292717760282937
2.051193407767461        26.289817177873786
2.051386026379997        26.28690289746302
2.051386026379997        26.28690157325504
2.0517119644305986       26.281930673018874
2.0517119644305986       26.28193393641529
2.052363840531802        26.271834223381525
2.052363840531802        26.271827982391596
2.052689778582404        26.266737256731595
2.052689778582404        26.266740235596725
2.0533416546836074       26.256397601275523
2.0533416546836074       26.256392287367266
2.053667592734209        26.2511793521438
2.053667592734209        26.25118085619368
2.0543194688354127       26.24059196843217
2.0543194688354127       26.240589555750375
2.0543398399635753       26.240258395226313
2.054360211091738        26.239927074787634
2.054400953348063        26.239264065750515
2.054482437860713        26.237934982292277
2.054645406886014        26.23526657622362
2.054645406886014        26.235267653354608
2.0552972829872176       26.224431191959848
2.0552972829872176       26.224426520977115
2.05531765411538         26.22408764327223
2.0553583963717053       26.22340925554673
2.0553991386280304       26.222730224249563
2.0554806231406806       26.221369607110226
2.0556435921659815       26.218638129993916
2.0556435921659815       26.218641279537707
2.055663963294144        26.218299642680034
2.055688408647939        26.21788944672557
2.055717254165417        26.217405092676277
2.0557512918760414       26.216833106797022
2.0557914563745783       26.216157543133644
2.0558388504828518       26.21535949411102
2.0558947755306143       26.214416581171747
2.055960767086974        26.21330225855702
2.056038637123479        26.211985004228943
2.056038637123479        26.211986742101317
2.056065743683186        26.211527875716218
2.0561199568026005       26.21060901248807
2.056174169922015        26.20968900540382
2.056282596160844        26.207844462148277
2.056282596160844        26.207843764704016
2.0563097027205512       26.207382298598127
2.0563332854274967       26.2069806054446
2.056356868134442        26.206578695856923
2.0563804508413877       26.20617656975442
2.056404033548333        26.205774227038294
2.0564276162552786       26.205371736096204
2.056451198962224        26.204969055715914
2.0564747816691695       26.20456616660259
2.056498364376115        26.204163062592873
2.0565219470830605       26.203759741887456
2.056545529790006        26.203356203918055
2.0565691124969514       26.202952448423737
2.056597411745286        26.20246765539764
2.0566308048583206       26.20189519746081
2.0566308048583206       26.201893915630496
2.0566424290009677       26.201694486683024
2.056654053143615        26.20149500438188
2.056665677286262        26.201295468984
2.0566889255715566       26.200896189845906
2.05671682351391         26.20041675046268
2.0567497430858874       26.199850590521795
2.0567885881808206       26.19918192979717
2.0568344253928417       26.1983920948603
2.0568885133030266       26.197458927847943
2.056952337037045        26.196356191450715
2.056952337037045        26.196354979539027
2.0569745540788564       26.19597085603638
2.0570012145290306       26.19550962841673
2.057027874979205        26.195048120094622
2.05705933431041         26.194503153786584
2.0570964563212324       26.193859562665118
2.0571402602940028       26.193099351688907
2.0571919489818717       26.192201248216342
2.0572529416335574       26.19114001887542
2.0573249129625464       26.189885732025232
2.0573249129625464       26.189885327071973
2.0573499661821675       26.189448383233838
2.0573750194017886       26.189011187427052
2.0574000726214097       26.188573740112325
2.05742186892248         26.188192969253674
2.05744366522355         26.187812007322005
2.0574654615246204       26.187430854059276
2.0574872578256906       26.187049569744786
2.057509054126761        26.186668117883958
2.057530850427831        26.186286481267988
2.0575526467289014       26.185904654264593
2.0575744430299716       26.185522635096568
2.057596239331042        26.18514042305953
2.057618035632112        26.184758017728672
2.0576398319331823       26.18437541874334
2.0576659874944667       26.1839160445318
2.0576659874944667       26.18391459982256
2.0576750922453497       26.183754590135262
2.0576933017471157       26.18343443733749
2.0577115112488817       26.183114148258152
2.057727353515418        26.182835392945464
2.0577431957819545       26.182556534294218
2.057759038048491        26.18227757220538
2.0577748803150273       26.181998539287417
2.0577907225815637       26.18171941584833
2.0578065648481          26.18144019263312
2.0578224071146365       26.181160866644063
2.057838249381173        26.18088143675769
2.0578540916477093       26.180601902998312
2.0578699339142457       26.180322265117873
2.057885776180782        26.18004252293437
2.0579047869006257       26.179706694916636
2.0579272195500415       26.179310224812735
2.057953690076352        26.178842120800024
2.0579767194342424       26.178434631770738
2.057999748792133        26.17802692044877
2.057999748792133        26.178030102784106
2.0580055061316056       26.17792812086423
2.0580112634710783       26.177826124914976
2.058017020810551        26.17772411503868
2.058028535489496        26.177520041086133
2.0580423531042302       26.177275072622948
2.0580586578896165       26.176985899349752
2.0580778975363723       26.17664452304936
2.0581006003195443       26.176241480998232
2.058105538174884        26.176153806741866
2.058110476030224        26.17606612218214
2.0581154138855635       26.1759784273258
2.0581203517409032       26.17589072217323
2.058125289596243        26.17580300672132
2.0581302274515827       26.175715280967523
2.0581351653069224       26.175627544908952
2.058140103162262        26.175539798545103
2.058145041017602        26.17545204187074
2.0581499788729416       26.175364274882874
2.0581549167282813       26.175276501651833
2.058164792438961        26.175100924983145
2.0581845438603206       26.174749652491855
2.0582017275969036       26.1744438512854
2.0582189113334866       26.17413792478627
2.0582360950700695       26.17383187289844
2.0582532788066525       26.173525695530376
2.0582704625432355       26.17321939257828
2.0582876462798185       26.172913003594243
2.0583048300164015       26.172606504709464
2.0583220137529845       26.172299884731377
2.0583220137529845       26.17229860363325
2.0583391974895675       26.171991761186636
2.0583563812261505       26.171684792184976
2.05837700171005         26.17131631315087
2.0583949415310423       26.170995541644132
2.0584128813520346       26.170674632109264
2.058430821173027        26.170353584414478
2.058448760994019        26.170032442140776
2.0584667008150115       26.169711178948024
2.058484640636004        26.169389779368842
2.058502580456996        26.16906824431209
2.0585205202779884       26.168746571546894
2.0585384600989807       26.16842476000815
2.058556399919973        26.16810280922627
2.0585743397409653       26.16778071891002
2.058595867526156        26.167394026533497
2.0586212703126816       26.16693747087222
2.0586512456007813       26.166398374094957
2.0586512456007813       26.166397218539313
2.058657765225943        26.166279889119764
2.0586642848511043       26.166162540916037
2.058670804476266        26.166045174054524
2.0586838437265893       26.165810367473497
2.0586994908269776       26.16552849257658
2.0587179544054357       26.165195731827527
2.058739741428016        26.164802865383628
2.058758696137661        26.16446091119625
2.058777650847306        26.164118797812467
2.058796605556951        26.163776524884007
2.058815560266596        26.16343414263827
2.058834514976241        26.16309162048831
2.058853469685886        26.162748943877023
2.0588724243955308       26.162406107875032
2.0588913791051757       26.16206311075425
2.0589103338148207       26.1617199516583
2.0589292885244657       26.161376629935937
2.0589482432341106       26.161033144970705
2.0589861526534006       26.160345685995892
2.0589861526534006       26.160344355019884
2.058994397952096        26.160194713766003
2.0590026432507913       26.160045041099032
2.0590108885494867       26.159895337142643
2.059027379146878        26.159595806238908
2.059047167863747        26.159236188750793
2.0590705185496527       26.158811587826182
2.0590980723590215       26.158310206839463
2.059130585854077        26.157718087815933
2.0591376575392513       26.15758927414669
2.0591447292244256       26.157460436891412
2.0591518009096          26.15733157603104
2.0591588725947743       26.157202691530284
2.0591659442799486       26.157073783355415
2.059173015965123        26.156944851476776
2.0591800876502973       26.15681590335582
2.0591871593354716       26.156686934475115
2.059194231020646        26.15655794270218
2.0592013027058202       26.15642892716457
2.0592083743909946       26.156299887937752
2.0592225177613437       26.156041738901514
2.059250804502042        26.155525155462435
2.059256956868144        26.155412737270378