% Model:              2D_2018_fixed_bottom_liquid__voltage_sweeps__2_wd_1.2mps.mph
% Version:            COMSOL 5.4.0.388
% Date:               Jun 25 2021, 16:19
% Table:              Probe Table 6 - 
% Time (s)               y-fluid_thickness (mm), droplet_gap
0                        0.10000000163450096
2.34375E-5               0.09999999895927286
4.6875E-5                0.09999997642681259
9.375E-5                 0.09999974663955956
1.875E-4                 0.09999773863297347
2.8125000000000003E-4    0.0999933934940295
4.6875000000000004E-4    0.09996936458167484
6.5625E-4                0.09992424052322237
0.00103125               0.09970686304612303
0.00140625               0.09932257334252384
0.00215625               0.09760841690276308
0.00290625               0.09470838658700002
0.0036562499999999998    0.09041612696720006
0.005156249999999999     0.07807068258598465
0.005156249999999999     0.0780706825859851
0.006024352983327798     0.06694230614590285
0.006892455966655596     0.053198728346603476
0.006892455966655596     0.05317121411338617
0.007595619383151113     0.0402882220199908
0.007595619383151113     0.040282655112081324
0.009001946216142146     0.01181803055842279
0.009001946216142146     0.011818097092934198
0.009353527924389905     0.0061175454151300886
0.009353527924389905     0.006117578395919629
0.009529318778513785     0.0041417583784043865
0.009529318778513785     0.004141889025261001
0.009617214205575724     0.0033829616945826
0.00969632008993147      0.00287451456863156
0.00969632008993147      0.0028744368152453653
0.009838710681771811     0.002430243350915254
0.009838710681771811     0.002430168404507667
0.009909905977691983     0.0022286207281155615
0.009981101273612155     0.002093874808370595
0.009981101273612155     0.0020934720172251058
0.010123491865452496     0.0020724979055510885
0.010123491865452496     0.0020724848210328106
0.010408273049133181     0.0024569681838395967
0.010408273049133181     0.0024563221927903153
0.010550663640973523     0.002513899293669908
0.010693054232813864     0.002607181121147984
0.010693054232813864     0.0026074519877922024
0.010910912251791197     0.002839153777609276
0.010910912251791197     0.002838995540598542
0.011346628289745864     0.0033958937225098476
0.011346628289745864     0.0033957243521457597
0.012218060365655196     0.004229353408881278
0.012218060365655196     0.004229564939518902
0.013960924517473864     0.004717694627612377
0.013960924517473864     0.0047178790416177105
0.014832356593383196     0.004595774807593118
0.014832356593383196     0.004595813297395175
0.016575220745201864     0.004992189693034388
0.016575220745201864     0.004992519664090075
0.017446652821111196     0.005102203268898126
0.01831808489702053      0.005305423984477888
0.01831808489702053      0.005305453997356355
0.01967858606096143      0.005741949020057063
0.01967858606096143      0.005742837627386709
0.022399588388843233     0.006006901466678455
0.022399588388843233     0.0060068805918171535
0.02390959018036926      0.006087558084334928
0.02390959018036926      0.006087382272651574
0.02692959376342131      0.00631461805290388
0.02692959376342131      0.006311357664010118
0.028584015838186608     0.006409131105353325
0.03023843791295191      0.0065280589767037316
0.03023843791295191      0.00652852677042676
0.03234151834009139      0.006812666516222993
0.034444598767230876     0.007015069136212353
0.034444598767230876     0.00701212642000449
0.036973743399653584     0.007202742640493361
0.03950288803207629      0.00739034014145528
0.03950288803207629      0.0073832068617804385
0.042376434974323175     0.007621127073921888
0.04524998191657006      0.007819117575049144
0.04524998191657006      0.007819008695455001
0.04960775917770668      0.008119472975145602
0.053965536438843296     0.008377426384314091
0.053965536438843296     0.0083756018399825
0.06268109096111653      0.008803866495041886
0.07139664548338977      0.009179566557024604
0.07139664548338977      0.009178840487169757
0.08139664548338976      0.009543408937726875
0.09139664548338976      0.009841932326448265
0.10139664548338975      0.010091431766957523
0.11139664548338975      0.010305888740129616
0.11139664548338975      0.01030584425021179
0.12139664548338974      0.010521365755822212
0.13139664548338975      0.010658469246608779
0.14139664548338976      0.010766845428727186
0.15139664548338977      0.010843448555172136
0.16139664548338978      0.01090462983726172
0.1713966454833898       0.010951058082907337
0.1813966454833898       0.010993712859665768
0.1813966454833898       0.010995618313407174
0.1913966454833898       0.010995482033902132
0.2013966454833898       0.011028882291255412
0.21139664548338982      0.011055579359123876
0.22139664548338983      0.011074899054889804
0.23139664548338984      0.011089402160346408
0.24139664548338985      0.011100420999583718
0.25139664548338986      0.01111097308330311
0.26139664548338987      0.011120535582379541
0.2713966454833899       0.01112614392479198
0.2813966454833899       0.011131110367013867
0.2913966454833899       0.011135807928352483
0.3013966454833899       0.011139098225313154
0.3013966454833899       0.011139469208865192
0.3113966454833899       0.011230179570693478
0.3213966454833899       0.011235887430796013
0.33139664548338993      0.011230779161385679
0.34139664548338994      0.011225986127188278
0.35139664548338995      0.011226183370757845
0.36139664548338996      0.011221042706516336
0.37139664548338996      0.011219762217238357
0.38139664548339         0.01121456624024247
0.39139664548339         0.0112103529192574
0.40139664548339         0.011205808086671605
0.41139664548339         0.011203629549045267
0.42139664548339         0.011202440321241795
0.43139664548339         0.01119770516305697
0.44139664548339         0.011194793446031928
0.45139664548339004      0.011193452692526747
0.46139664548339004      0.011192362755718405
0.47139664548339005      0.011187890041194568
0.48139664548339006      0.01118511739837567
0.49139664548339007      0.01118319047740653
0.50139664548339         0.011181494138017261
0.51139664548339         0.011180731684777828
0.52139664548339         0.01117729669655428
0.53139664548339         0.011173480328357556
0.5413966454833901       0.01116959507863188
0.5513966454833901       0.011166962322349365
0.5613966454833901       0.011164453711128269
0.5713966454833901       0.011163030759529704
0.5813966454833901       0.011159882149504221
0.5913966454833901       0.011160715876316635
0.6013966454833901       0.01115898338424062
0.6113966454833901       0.01115573363461497
0.6213966454833901       0.011153396405923569
0.6313966454833901       0.011150318191120723
0.6413966454833901       0.011147879309906118
0.6513966454833902       0.01114381840482603
0.6613966454833902       0.011141830726364103
0.6713966454833902       0.01113960316167107
0.6813966454833902       0.011137995862643257
0.6913966454833902       0.011136477560270974
0.7013966454833902       0.011134164128260345
0.7113966454833902       0.011133132496025846
0.7213966454833902       0.011130995469600669
0.7313966454833902       0.011129992200473171
0.7413966454833902       0.011128485016793227
0.7413966454833902       0.011128304057613728
0.7513966454833902       0.01125021778799985
0.7613966454833903       0.011251960417198344
0.7713966454833903       0.011244057499045553
0.7813966454833903       0.011238984069040017
0.7913966454833903       0.011235824534931715
0.8013966454833903       0.011233095596723496
0.8113966454833903       0.011230671989005767
0.8213966454833903       0.011228425472068013
0.8313966454833903       0.011226321541503957
0.8413966454833903       0.011224334881736273
0.8513966454833903       0.01122243796046387
0.8613966454833903       0.011220599731020207
0.8713966454833904       0.011218807896796676
0.8813966454833904       0.011217046515465522
0.8913966454833904       0.01121531322774861
0.9013966454833904       0.011213598499293896
0.9113966454833904       0.011211906833707638
0.9213966454833904       0.011210230263852036
0.9313966454833904       0.011208577055648455
0.9413966454833904       0.011206938484166398
0.9513966454833904       0.011205323754752416
0.9613966454833904       0.01120373991987493
0.9713966454833904       0.011202262684432019
0.9813966454833905       0.011200972562936274
0.9913966454833905       0.011199952726679164
1.0013966454833905       0.01119923650854315
1.0113966454833905       0.011198833214278846
1.0213966454833905       0.011198702820244735
1.0313966454833905       0.011198783404288946
1.0413966454833905       0.011198978995509683
1.0513966454833905       0.011199182352824178
1.0613966454833905       0.011199291480599137
1.0713966454833905       0.011199271698244997
1.0813966454833905       0.011199148414995502
1.0913966454833905       0.011198966214257498
1.1013966454833906       0.011198772157497254
1.1113966454833906       0.011198593235109931
1.1213966454833906       0.011198450658337928
1.1313966454833906       0.011198331988390795
1.1413966454833906       0.011198206307765166
1.1513966454833906       0.011197987627949591
1.1613966454833906       0.011197567020613738
1.1713966454833906       0.011196791985698153
1.1813966454833906       0.011195528517373831
1.1913966454833906       0.01119366460403809
1.2013966454833906       0.011191184073333204
1.2113966454833907       0.011188166473975313
1.2213966454833907       0.0111846556848684
1.2313966454833907       0.011180654127342527
1.2413966454833907       0.011176174458203854
1.2513966454833907       0.011171218549239394
1.2613966454833907       0.011165804428465292
1.2713966454833907       0.011159949534487665
1.2813966454833907       0.01115345618080436
1.2913966454833907       0.01114495585000921
1.3013966454833907       0.01113601166600987
1.3113966454833907       0.011126673102898263
1.3213966454833908       0.011117002843660361
1.3313966454833908       0.011107084521829423
1.3413966454833908       0.011096813572065555
1.3513966454833908       0.011086669303205302
1.3613966454833908       0.011076586907443706
1.3713966454833908       0.0110637858710275
1.3813966454833908       0.011049847917946314
1.3913966454833908       0.011036101620141847
1.4013966454833908       0.011022651830194276
1.4113966454833908       0.011009601237665315
1.4213966454833908       0.010997017278341521
1.4313966454833909       0.010978979818387045
1.4413966454833909       0.010961516078255521
1.4513966454833909       0.010944427744280678
1.4613966454833909       0.010927883983469742
1.4713966454833909       0.010912410542177151
1.481396645483391        0.010891946432846876
1.491396645483391        0.010870374036794223
1.501396645483391        0.01084968136421012
1.511396645483391        0.010830262981224338
1.521396645483391        0.010812337294614782
1.531396645483391        0.01078737861667919
1.541396645483391        0.010762196732377449
1.551396645483391        0.010736253472436522
1.561396645483391        0.010717886926983177
1.571396645483391        0.010689792568427912
1.581396645483391        0.010659856179211832
1.591396645483391        0.010632851729963904
1.601396645483391        0.010608241259614775
1.611396645483391        0.010582948561706045
1.621396645483391        0.010547838927981844
1.631396645483391        0.010516000482877104
1.641396645483391        0.010489627087747859
1.651396645483391        0.010460094771691693
1.661396645483391        0.01042556855412706
1.661396645483391        0.010424007348293612
1.671396645483391        0.010410133774419253
1.681396645483391        0.010392486525420772
1.691396645483391        0.010362114343976866
1.701396645483391        0.010332977017989565
1.711396645483391        0.010301774916982032
1.721396645483391        0.010266667089631025
1.7313966454833911       0.01023274164789565
1.7413966454833911       0.01019891879695074
1.7513966454833911       0.010155710357017973
1.7613966454833911       0.010127589372127023
1.7713966454833912       0.010084735714984208
1.7813966454833912       0.01004433090821778
1.7913966454833912       0.010016675095306758
1.8013966454833912       0.009972413725577254
1.8113966454833912       0.009935267955271665
1.8213966454833912       0.009883953876809164
1.8313966454833912       0.009854899778592024
1.8313966454833912       0.009852143324043904
1.8413966454833912       0.009769176728469282
1.8513966454833912       0.009714372190083517
1.8613966454833912       0.00965853541834167
1.8713966454833912       0.009614891657451236
1.8813966454833913       0.009573746006260372
1.8913966454833913       0.009529254764032227
1.9013966454833913       0.009493552100000007
1.9113966454833913       0.009443064539433298
1.9213966454833913       0.009394799042297414
1.9313966454833913       0.009350423274126236
1.9413966454833913       0.009290486953130502
1.9513966454833913       0.009253009865997208
1.9513966454833913       0.00924777067307786
1.9613966454833913       0.009208704128661326
1.9713966454833913       0.009178957836519178
1.9813966454833913       0.009149623519578813
1.9913966454833913       0.009099181851949124
2.0013966454833914       0.009043755394194056
2.011396645483391        0.008995345013779188
2.021396645483391        0.008934796826042587
2.0313966454833907       0.008887895920785434
2.0413966454833905       0.008821397097975164
2.0513966454833903       0.008750482819842344
2.0513966454833903       0.00875277760247102
2.06139664548339         0.008641942653090772
2.07139664548339         0.00855196886915795
2.0813966454833897       0.008468322837565032
2.0913966454833894       0.008410761618699025
2.1013966454833892       0.00834094181811863
2.111396645483389        0.008276783799171603
2.111396645483389        0.008274451404706971
2.121396645483389        0.008308214000387563
2.1313966454833886       0.008237804894888935
2.1413966454833884       0.00815260924913767
2.151396645483388        0.008076160596703994
2.161396645483388        0.008004169506161535
2.161396645483388        0.00799828634596468
2.1713966454833877       0.007923418398687616
2.1813966454833875       0.00783955741644497
2.1913966454833873       0.007762107620237942
2.201396645483387        0.007693425492119859
2.203896645483387        0.007678051360241259
2.208896645483387        0.0076126213054607955
2.213896645483387        0.007586327344888139
2.213896645483387        0.007578625299121348
2.2238966454833866       0.007559683345338079
2.2338966454833864       0.007517700168165921
2.243896645483386        0.007443536423123141
2.253896645483386        0.007356598200432361
2.2638966454833858       0.007278496068355116
2.2638966454833858       0.00727965129307959
2.2738966454833855       0.007286497638668132
2.2838966454833853       0.007195039292263224
2.2863966454833853       0.007163921860387206
2.291396645483385        0.007128541887477507
2.296396645483385        0.0070576174207664065
2.296396645483385        0.007058851056326431
2.306396645483385        0.006971220889272298
2.3163966454833846       0.0068983674813044744
2.3263966454833844       0.006801332214030013
2.3263966454833844       0.006803486569709975
2.336396645483384        0.006740920773175892
2.346396645483384        0.006610600452215069
2.346396645483384        0.006609051562751333
2.356396645483384        0.006479704561459295
2.3663966454833836       0.006389733158245793
2.3663966454833836       0.006461147082531191
2.3763966454833834       0.005850751209797011
2.3788966454833833       0.005926922101299678
2.3788966454833833       0.005840828267379174
2.383896645483383        0.006352502022705358
2.388896645483383        0.00631637640975246
2.397896645483383        0.006173962465493964
2.397896645483383        0.006178136097805247
2.406896645483383        0.005965148628385777
2.406896645483383        0.005966023504401594
2.4168966454833827       0.005676363608752514
2.4168966454833827       0.005676352727637928
2.4218966454833826       0.005736008017735456
2.4268966454833825       0.005757908708787368
2.4268966454833825       0.005754197434805659
2.4328966454833822       0.005684346838716325
2.4328966454833822       0.005680022888761294
2.442896645483382        0.005589380013429433
2.442896645483382        0.00559001521456895
2.447896645483382        0.005491972969806115
2.452896645483382        0.005376923680076948
2.452896645483382        0.005373074754267803
2.461596957360579        0.005273681844175822
2.461596957360579        0.005269651478084173
2.4659471132991775       0.005111681721870279
2.4659471132991775       0.005112154544217092
2.4746474251763746       0.005060280668114925
2.4746474251763746       0.005058631981484131
2.475734964161024        0.005001830317282081
2.4768225031456734       0.004992831624341977
2.477910042130323        0.004996056483850316
2.480085120099622        0.005018617762803015
2.480085120099622        0.00501875173065415
2.4811726590842715       0.005035506803095172
2.482260198068921        0.005032268226899759
2.4833477370535704       0.005018011807229536
2.4855228150228696       0.004972478092792141
2.4855228150228696       0.004970749165127478
2.4886027254273975       0.004924134836608359
2.4916826358319253       0.004903093183737314
2.4916826358319253       0.004903147549728624
2.497842456640981        0.004846221458334934
2.497842456640981        0.004846297667381819
2.5009223670455087       0.004821278709966036
2.5040022774500366       0.0047785602836254715
2.5040022774500366       0.0047762957628488464
2.510162098259092        0.00475783890186007
2.510162098259092        0.004755955108892099
2.51324200866362         0.004717401888105696
2.516321919068148        0.0046035652653871745
2.516321919068148        0.004603740315004771
2.5178618742704115       0.00456867894301936
2.519401829472675        0.004509075849974068
2.520941784674939        0.004447279693406761
2.520941784674939        0.004446256737991074
2.5240216950794667       0.004416276993068815
2.524791672680599        0.00438769265992487
2.525715645801957        0.004369905032462762
2.525715645801957        0.004367948421387779
2.5270021859761367       0.004353685515921281
2.528288726150316        0.004321100816624419
2.528288726150316        0.00431488899573472
2.5295752663244957       0.004280595904002527
2.5321483466728543       0.004180257765191032
2.5323091641946265       0.004152634050506431
2.5326307992381714       0.004120173893375646
2.5326307992381714       0.004121259488723637
2.533274069325261        0.004116245082166122
2.533917339412351        0.004111228083200115
2.5352038795865304       0.004099580258701795
2.5352038795865304       0.004099493892978628
2.537776959934889        0.004145119987621938
2.537776959934889        0.004144806209481315
2.542923120631606        0.00412876593987874
2.542923120631606        0.004121100405445402
2.5454962009799647       0.004139166374797845
2.5454962009799647       0.0041399573610912364
2.550642361676682        0.004129352240785436
2.550642361676682        0.0041344202312346146
2.5532154420250404       0.004045299033757655
2.5532154420250404       0.004047846051422142
2.5583616027217575       0.004037985299844889
2.5583616027217575       0.004036836206251174
2.560934683070116        0.003924503855467099
2.560934683070116        0.003925102160362744
2.561256318113661        0.0039055904693108268
2.561577953157206        0.0038876477197456218
2.5618995882007507       0.0038845881999501237
2.5625428582878405       0.003862711854607688
2.56382939846202         0.0038064318887667987
2.56382939846202         0.0038127696444416673
2.565651139348658        0.00380905461764159
2.565651139348658        0.0037955861867922623
2.5692946211219336       0.003918591443990028
2.5692946211219336       0.0039188138336826266
2.5711163620085715       0.0038377590782924347
2.5711163620085715       0.0038348729768928995
2.5747598437818473       0.0037098044622144687
2.5747598437818473       0.0036973497276725914
2.576581584668485        0.0036671258462211975
2.576581584668485        0.0036611697739738144
2.580225066441761        0.003972586729369173
2.580225066441761        0.00396965914104333
2.582046807328399        0.004085540501076214
2.5838685482150368       0.0041512038558254305
2.5838685482150368       0.0041502390094659385
2.587147681810985        0.004013738599422268
2.587147681810985        0.004014115095221215
2.588787248608959        0.004047564003685413
2.5904268154069334       0.003915988569569689
2.5904268154069334       0.003915677548572971
2.5937059490028815       0.0035882902081211046
2.5937059490028815       0.0035826070896942917
2.595345515800856        0.003461923192287983
2.595345515800856        0.003460353095903479
2.598624649396804        0.0032990284456568646
2.598624649396804        0.0032972961985927585
2.600264216194778        0.003363276262793608
2.600264216194778        0.003361650109511699
2.6035433497907263       0.0032560117237401265
2.6035433497907263       0.003247832778380602
2.6051829165887006       0.0032296990195605432
2.6051829165887006       0.003229636466503625
2.6060026999876875       0.003074045564405159
2.6068224833866744       0.0029754143159462475
2.6068224833866744       0.0029754240093078123
2.6084620501846487       0.0029460773718330974
2.6084620501846487       0.0029428818655711543
2.6092818335836356       0.0028642650138723837
2.6092818335836356       0.0028600856846190507
2.6096917252831293       0.0028773453641176006
2.610101616982623        0.002848432694736551
2.6105115086821167       0.0027894765771813677
2.6105115086821167       0.002774989175789548
2.612151075480091        0.002711836794988629
2.612151075480091        0.0027001633969925623
2.612970858879078        0.002905111720311049
2.612970858879078        0.0029056088486347983
2.614610425677052        0.002666503809476903
2.614610425677052        0.0026656175428291587
2.615430209076039        0.002603110491041557
2.615430209076039        0.002597205663062551
2.6158401007755328       0.0025921297198043883
2.6162499924750264       0.002555382548693249
2.6162499924750264       0.0025609368130698022
2.61665988417452         0.0025647573939167195
2.6171517542139124       0.0025270481377732794
2.6171517542139124       0.0025108604251333246
2.6177321608603954       0.0026830076135346548
2.6177321608603954       0.0026833583250986115
2.618892974153361        0.0023986838912090983
2.618892974153361        0.0023928359645479513
2.619473380799844        0.00236395487953657
2.619473380799844        0.002370370746631982
2.6197635841230853       0.0022591863200272302
2.6200537874463268       0.002211231447570537
2.6200537874463268       0.002195468185652548
2.6201565194227543       0.0020672029637388255
2.620259251399182        0.0019772643955690353
2.6203619833756093       0.001943760756991167
2.6203619833756093       0.0018535777633805518
2.620464715352037        0.001906037110595716
2.6205674473284644       0.001989940018473635
2.620670179304892        0.0020759153486677763
2.620670179304892        0.002074631522470515
2.621081107210602        0.002295285093535833
2.621081107210602        0.002294700457484023
2.6219029630220216       0.00213702546332864
2.6219029630220216       0.002135537487751686
2.6223138909277317       0.002067697714276673
2.6224166229041592       0.0020152440409482164
2.6224166229041592       0.0020130450804063497
2.6228275508098693       0.001965379008465277
2.6228275508098693       0.001968089885773499
2.6228403923069226       0.0019600217854428767
2.622853233803976        0.0019464298813159399
2.622878916798083        0.0019244513901326733
2.622909736391011        0.0019052838727239008
2.6229461035106665       0.00189311389084618
2.62298901671186         0.001880561930547777
2.623039654289268        0.001858790189351433
2.6230994066306095       0.0018586694579443563
2.6231699143933924       0.0018434819259644832
2.6232531135534765       0.0018447790247110366
2.6232531135534765       0.0018417181468699181
2.6232820751811015       0.0018072288194928045
2.623339998436352        0.0017337692645841805
2.6233979216916024       0.0016739876600646228
2.6235137682021032       0.0016395896764126276
2.6235137682021032       0.001579971044710169
2.6235427298297282       0.0015883992007079302
2.6235716914573532       0.0016084488716375071
2.6235977569222158       0.0016312894923469629
2.623629035480051        0.0016634799441831924
2.623665944178297        0.001706623521747011
2.6237094964422267       0.001761226388530615
2.623760888113664        0.001824365083873819
2.623760888113664        0.0018261034142883284
2.623778777554491        0.0018430091546341523
2.6237966669953185       0.0018598932972416216
2.623814556436146        0.0018792139210542513
2.6238503353178007       0.0019110295269852973
2.6239218930811097       0.0019669444193174367
2.6240650086077277       0.002011453057036445
2.6240650086077277       0.0020092922854279306
2.6240776743318333       0.0020092680655106263
2.6240903400559388       0.0020109172269352354
2.6241030057800443       0.002013634067979473
2.624128337228256        0.002018590509754708
2.6241790001246788       0.0020142367427346264
2.6242803259175242       0.0019884227942679883
2.6242803259175242       0.0021026861755876237
2.6243056573657357       0.002051274777906467
2.6243360551035892       0.0019709387004329323
2.6243664528414428       0.001873782788063428
2.6244023221721102       0.0017736483139941216
2.6244446479822976       0.0016469292840413235
2.6244446479822976       0.00141751238527622
2.624459381596824        0.0013860854456483086
2.62447411521135         0.0013592307890508866
2.624487375464424        0.0013414191607943708
2.624513895970571        0.0013265765199384043
2.6245669369828657       0.0013243544682664012
2.62457847340304         0.0013268429599937528
2.624590009823214        0.0013296052785560092
2.6246015462433885       0.0013269066900427687
2.6246130826635627       0.0013273400804982363
2.624624619083737        0.0013308549793263937
2.6246361555039113       0.0013363993059769576
2.6246476919240855       0.0013447579798571765
2.62465922834426         0.001355951881153953
2.624670764764434        0.0013660504339292091
2.6246823011846083       0.0013691097144165679
2.6246938376047826       0.0013749556960940441
2.6247169104451307       0.0013946763433828231
2.6247169104451307       0.0014017969741778914
2.6247399832854788       0.0014169339232297275
2.624763056125827        0.0014412323867969007
2.624786128966175        0.001474093339914797
2.624813816374593        0.0015098091334601188
2.624846487516526        0.0015417613646729993
2.624885039464007        0.0015958590753682028
2.6249305307620343       0.0016566900383416239
2.6249305307620343       0.002157410808225138
2.624946366282878        0.0021554172707372726
2.6249622018037213       0.0021564032001691186
2.624978037324565        0.0021479111983013603
2.624997039949577        0.002098785805321711
2.6250194630470913       0.00203526225178198
2.6250459223021583       0.0019358956904530142
2.625077144223137        0.001828437276299097
2.625113986089892        0.0017177706615658511
2.625113986089892        0.0017168313780676486
2.62512681074371         0.0016762142676309162
2.6251396353975274       0.0016370496625909593
2.625152460051345        0.0015994677203265764
2.6251781093589797       0.0014765324837517912
2.625229407974249        0.0012071893602345549
2.625229407974249        0.0011463344268881383
2.6252475676840543       0.0010858696659643043
2.625262792755942        0.0010448409693535748
2.625274056828263        0.00102074053330483
2.6252965849729057       9.89526350089233E-4
2.625323618746477        9.541478310846722E-4
2.625323618746477        0.0011707942977807508
2.6253330292030572       0.0011284581468581044
2.6253424396596374       0.0010904903648164925
2.6253518501162176       0.0010561360262789296
2.625370671029378        9.734230446479565E-4
2.6253932561251703       8.879325928213069E-4
2.6253932561251703       8.89894398183131E-4
2.6254247036125515       7.85228147301073E-4
2.6254247036125515       7.900310526887111E-4
2.625440427356242        7.15201997483067E-4
2.625456151099933        6.722763816443059E-4
2.6254718748436234       5.946937378306649E-4
2.6254718748436234       6.000702394070787E-4
2.6254941396646894       5.421513915252613E-4
2.6254941396646894       5.357106784881389E-4
2.6255052720752223       5.179367806931734E-4
2.6255164044857553       4.608962070984206E-4
2.6255275368962883       4.303903945557068E-4
2.6255275368962883       4.2892552100035064E-4
2.6255281373933763       4.2498194101217926E-4
2.6255283707059243       4.233913093163767E-4
2.625528604018472        4.217830149701521E-4
2.6255290706435677       4.1856837651151405E-4
2.625530003893759        4.12264254293776E-4
2.6255318703941417       4.0037387831525287E-4
2.6255356033949067       3.8012703581320403E-4
2.625543069396437        3.341849388379531E-4
2.625543069396437        3.3383527758791207E-4
2.6255580013994972       2.777952378156187E-4
2.6255580013994972       2.745774558702077E-4
2.6255654674010276       2.4770579279539615E-4
2.6255654674010276       2.3974954184739425E-4
2.625565481888356        2.3966870505223725E-4
2.625565492584437        2.396105532203631E-4
2.625565500879402        2.3956591984524225E-4
2.6255655174693318       2.394779277702444E-4
2.6255655340592616       2.39390510750441E-4
2.6255655506491915       2.3930345231229153E-4
2.6255655838290513       2.3913114585369377E-4
2.625565617008911        2.389599496168196E-4
2.6255656501887707       2.387897150451547E-4
2.62556571654849         2.384535807663235E-4
2.6255658492679284       2.3779419689807027E-4
2.625565981987367        2.3714574210386904E-4
2.6255662474262436       2.3589158402699886E-4
2.625566778303997        2.335533325404683E-4
2.6255678400595035       2.2957443543804648E-4
2.625569963570517        2.244756003477906E-4
2.625574210592544        2.1115437226623332E-4
2.625574210592544        2.1692948374597842E-4
2.625591198680652        2.2140597015496422E-4
