% Model:              2D_2018_fixed_bottom_liquid__voltage_sweeps__2_wd.mph
% Version:            COMSOL 5.4.0.388
% Date:               Jun 24 2021, 11:23
% Table:              Probe Table 6 - 
% Time (s)               y-fluid_thickness (mm), droplet_gap
0                        0.10000000216351962
2.34375E-5               0.09999999925305479
4.6875E-5                0.09999997658612655
9.375E-5                 0.09999974720790397
1.875E-4                 0.09999774168148803
2.8125000000000003E-4    0.09999339861266765
4.6875000000000004E-4    0.09996933523022779
6.5625E-4                0.09992409373391292
0.00103125               0.09970564749294279
0.00140625               0.09931881153516994
0.00215625               0.09758687471978855
0.00290625               0.09464775670162909
0.0036562499999999998    0.09028499811212674
0.005156249999999999     0.07768826051774737
0.005156249999999999     0.07768826051774737
0.006656249999999999     0.05443841955002316
0.006656249999999999     0.05443841955002316
0.007459126775003793     0.03965696048978959
0.007459126775003793     0.03963042512986764
0.00786056516250569      0.03167834247577326
0.00786056516250569      0.031677684488864814
0.008490178311521985     0.018205358993772947
0.008490178311521985     0.01819705805003284
0.008804984886030131     0.011506208308687243
0.008804984886030131     0.011506436980812749
0.009119791460538278     0.006002002970027613
0.009119791460538278     0.006002402753362088
0.009277194747792351     0.004027523821164159
0.009277194747792351     0.0040273271965998725
0.00937094059457623      0.00318634831692529
0.00937094059457623      0.0031861031092369346
0.009558432288143985     0.0024754855853102893
0.009558432288143985     0.002475486563348686
0.009652178134927863     0.002158823358700164
0.009652178134927863     0.0021587353511462286
0.009745923981711741     0.0019418517637685533
0.00983966982849562      0.0018114899615439932
0.00983966982849562      0.0018087229308677913
0.009886542751887559     0.0017338023090745017
0.009933415675279498     0.0016771852731261097
0.009980288598671437     0.0016371676647389428
0.009980288598671437     0.001637154598908841
0.010167780292239192     0.001975109471686904
0.010167780292239192     0.0019738872558258333
0.010542763679374702     0.0023421335815501307
0.010542763679374702     0.0023410895589833815
0.010730255372942457     0.0023707663798426364
0.010917747066510212     0.0024380674719685566
0.010917747066510212     0.0024380080013404817
0.011292730453645723     0.0027476698708835817
0.011292730453645723     0.0027465684956928804
0.012042697227916744     0.003177016635027164
0.012042697227916744     0.0031785837230876093
0.012417680615052254     0.0031868820555671154
0.012792664002187764     0.003201886807715354
0.012792664002187764     0.003212623312772757
0.013353097269549294     0.003311732784465251
0.013353097269549294     0.0033012824391964214
0.014473963804272355     0.003799180659406348
0.014473963804272355     0.0037962506150286505
0.015034397071633884     0.003903343584967748
0.015594830338995414     0.004058050269371057
0.015594830338995414     0.00405804823672834
0.016478410570497704     0.004367451253310672
0.016478410570497704     0.004366880258473323
0.018245571033502286     0.004708583175294049
0.018245571033502286     0.0047101598778750454
0.019129151265004578     0.004709419087740516
0.02001273149650687      0.004706975705496587
0.02001273149650687      0.004706769637722631
0.02157183955399187      0.004800762370236501
0.02157183955399187      0.004800700968667342
0.024690055668961867     0.005108513794923903
0.024690055668961867     0.005108083913562492
0.026249163726446867     0.005188526626201135
0.026249163726446867     0.005188504015359984
0.029367379841416866     0.005503007951946411
0.029367379841416866     0.00550338477226138
0.033170750938571615     0.00580332046244518
0.033170750938571615     0.005802715036632832
0.035875637939777175     0.00597696915996971
0.035875637939777175     0.005977579431317489
0.04128541194218829      0.006344044266006366
0.04128541194218829      0.006343212214531338
0.05128541194218829      0.006945545666965126
0.05128541194218829      0.006940996998323727
0.056285411942188286     0.007239626723665616
0.061285411942188284     0.007469303408371743
0.061285411942188284     0.007469482716810066
0.07128541194218828      0.00781969809601421
0.07128541194218828      0.00781863281074189
0.08128541194218827      0.008212254413827308
0.09128541194218827      0.00847132767006634
0.09128541194218827      0.0084713760189121
0.10128541194218826      0.008718241706385816
0.11128541194218826      0.008919131326438033
0.12128541194218825      0.009087006287184386
0.13128541194218826      0.009208163459083207
0.14128541194218827      0.00931059115564202
0.15128541194218828      0.009398601025702603
0.1612854119421883       0.009460719276064688
0.1612854119421883       0.009458345731324595
0.1712854119421883       0.009396496280484213
0.1812854119421883       0.009439730146772012
0.19128541194218832      0.00948184613934911
0.20128541194218832      0.009513343748946898
0.21128541194218833      0.009540778552134376
0.22128541194218834      0.009561452642873648
0.23128541194218835      0.009580003502466898
0.24128541194218836      0.009595587521761106
0.25128541194218834      0.009607588959519194
0.26128541194218835      0.009619975624584366
0.27128541194218836      0.009626979173062936
0.28128541194218837      0.009635022927054378
0.2912854119421884       0.009640999903750072
0.3012854119421884       0.009645344927714829
0.3112854119421884       0.009650673039997802
0.3212854119421884       0.009653394874229327
0.3312854119421884       0.009654957132429736
0.3412854119421884       0.00965979437658358
0.35128541194218843      0.009658604336172313
0.36128541194218844      0.009661190271160157
0.37128541194218845      0.009664950658913509
0.38128541194218846      0.009667847917929542
0.38128541194218846      0.009666157855958962
0.39128541194218847      0.009739245373211261
0.4012854119421885       0.009752831637499342
0.4112854119421885       0.009754562203386115
0.4212854119421885       0.00975354953711323
0.4312854119421885       0.009752241391334897
0.4412854119421885       0.009751506055680117
0.4512854119421885       0.009750900056835262
0.46128541194218853      0.00975003152049736
0.47128541194218854      0.00974953968885077
0.48128541194218855      0.009747904964238583
0.49128541194218855      0.009747242866041134
0.5012854119421886       0.009746080314505627
0.5112854119421886       0.00974498401530837
0.5212854119421886       0.00974345066723746
0.5312854119421886       0.009741829070277885
0.5412854119421886       0.009740378708719168
0.5512854119421886       0.00973844144207649
0.5612854119421886       0.009736586069263205
0.5712854119421886       0.009734989261641746
0.5812854119421886       0.009733397944518534
0.5912854119421886       0.009731543607391108
0.6012854119421887       0.009729879924638783
0.6112854119421887       0.009728372138901372
0.6212854119421887       0.009726970833104278
0.6312854119421887       0.009725443998490676
0.6412854119421887       0.009723775123330648
0.6512854119421887       0.009722200669927926
0.6612854119421887       0.00972069631997776
0.6712854119421887       0.009719246948521575
0.6812854119421887       0.009717844718708409
0.6912854119421887       0.009716477446291161
0.7012854119421887       0.009715131612154752
0.7112854119421887       0.009713801586240262
0.7212854119421888       0.009712486138925384
0.7312854119421888       0.00971112625565429
0.7412854119421888       0.0097097152290458
0.7512854119421888       0.009708323094363529
0.7612854119421888       0.009706951473453362
0.7712854119421888       0.009705602719161082
0.7812854119421888       0.009704272722834036
0.7912854119421888       0.009702952030670332
0.8012854119421888       0.00970163522190674
0.8112854119421888       0.009700327418787034
0.8212854119421888       0.009699038822551243
0.8312854119421889       0.009697769874297477
0.8412854119421889       0.009696478813401698
0.8512854119421889       0.009695096394324917
0.8612854119421889       0.009693703797191387
0.8712854119421889       0.009692324540571014
0.8812854119421889       0.00969096525852255
0.8912854119421889       0.009689601491333095
0.9012854119421889       0.009688210051038513
0.9112854119421889       0.009686802342668503
0.9212854119421889       0.009685418660132332
0.931285411942189        0.009684076878864207
0.941285411942189        0.009682738591124899
0.951285411942189        0.00968135966399053
0.961285411942189        0.009679957711931312
0.971285411942189        0.009678642633380915
0.981285411942189        0.009677518130402768
0.991285411942189        0.009676607171000239
1.001285411942189        0.009675889710020289
1.011285411942189        0.009675230167920969
1.021285411942189        0.009674904372742373
1.031285411942189        0.009674932357965453
1.041285411942189        0.00967518423097358
1.051285411942189        0.009675475845709845
1.061285411942189        0.009675704746286724
1.071285411942189        0.009675913215615763
1.081285411942189        0.009676164667053993
1.091285411942189        0.009676164599426666
1.101285411942189        0.009675931991680667
1.111285411942189        0.009675584741621664
1.1212854119421891       0.00967525045993253
1.1312854119421891       0.009675032680543823
1.1412854119421891       0.009674827721779019
1.1512854119421891       0.009674445605642543
1.1612854119421891       0.009673784084258431
1.1712854119421892       0.009672825544352563
1.1812854119421892       0.009671554488084946
1.1912854119421892       0.00966978371112065
1.2012854119421892       0.009667092578454547
1.2112854119421892       0.009663486482552192
1.2212854119421892       0.00965942444424708
1.2312854119421892       0.009654987365525277
1.2412854119421892       0.00965004193041524
1.2512854119421892       0.009643997074079702
1.2612854119421892       0.00963716964376372
1.2712854119421892       0.00962976392087896
1.2812854119421893       0.009621899812204803
1.2912854119421893       0.00961329178951302
1.3012854119421893       0.00960368095568936
1.3112854119421893       0.00959381517265075
1.3212854119421893       0.009583226640789977
1.3312854119421893       0.009571918536770401
1.3412854119421893       0.009560901417638053
1.3512854119421893       0.009548687769460155
1.3612854119421893       0.00953556618370167
1.3712854119421893       0.009521919557028361
1.3812854119421893       0.009507837521176721
1.3912854119421894       0.009493323015320396
1.4012854119421894       0.009477618704649936
1.4112854119421894       0.009461442062918927
1.4212854119421894       0.009444558737394405
1.4312854119421894       0.009427276147207318
1.4412854119421894       0.009409471568678357
1.4512854119421894       0.009390333403443488
1.4612854119421894       0.009371197050660283
1.4712854119421894       0.009351086117330605
1.4812854119421894       0.009330348167070797
1.4912854119421894       0.009308637456361974
1.5012854119421895       0.009287364094157785
1.5112854119421895       0.009264810684141058
1.5212854119421895       0.009241454836607724
1.5312854119421895       0.009217562592198688
1.5412854119421895       0.00919370890486819
1.5512854119421895       0.009168517057328313
1.5612854119421895       0.009142750515269468
1.5712854119421895       0.009117894839126301
1.5812854119421895       0.00909186017959045
1.5912854119421895       0.009063304488907305
1.6012854119421895       0.009036338493200943
1.6112854119421895       0.009008803388140321
1.6212854119421896       0.008980173468285755
1.6312854119421896       0.008947865564773536
1.6412854119421896       0.008918209936365721
1.6512854119421896       0.008885969837226296
1.6612854119421896       0.008854248642879703
1.6712854119421896       0.008818345279239508
1.6812854119421896       0.008801952900360302
1.6912854119421896       0.008759107663000153
1.7012854119421896       0.008725574346386215
1.7012854119421896       0.008724889953938119
1.7112854119421896       0.008695713321882435
1.7212854119421896       0.008644772902964212
1.7312854119421897       0.008599243703553191
1.7412854119421897       0.008563995716359251
1.7512854119421897       0.008527433003677979
1.7612854119421897       0.008487638293084784
1.7712854119421897       0.008441474299480424
1.7812854119421897       0.008394838375101656
1.7912854119421897       0.008350300866247998
1.8012854119421897       0.00830901521591031
1.8012854119421897       0.00830816205209554
1.8112854119421897       0.008237626137541903
1.8212854119421897       0.008190366899109985
1.8312854119421897       0.008145133259169091
1.8412854119421898       0.008099055087474206
1.8512854119421898       0.008047861539224252
1.8612854119421898       0.007993588884974614
1.8712854119421898       0.007950344122029974
1.8812854119421898       0.007891092240617376
1.8912854119421898       0.007846682274123204
1.9012854119421898       0.007793387068998677
1.9012854119421898       0.007789633088328522
1.9112854119421898       0.007719592549276354
1.9212854119421898       0.007667038173793817
1.9312854119421898       0.007610150515461548
1.9412854119421898       0.007552884959843766
1.9512854119421899       0.00749294567512198
1.9612854119421899       0.007426933156881241
1.9712854119421899       0.0073754724244389815
1.9712854119421899       0.007372202896515842
1.9812854119421899       0.00745080960361591
1.9912854119421899       0.007402243849723069
2.00128541194219         0.007344407281987056
2.0112854119421897       0.00727073287964345
2.0212854119421895       0.007184651541005532
2.0212854119421895       0.007183965694649696
2.0312854119421893       0.006982470196047023
2.041285411942189        0.0068226162173580344
2.051285411942189        0.00670120291656074
2.051285411942189        0.0067000114039325945
2.0612854119421886       0.006732554445625007
2.0712854119421884       0.006718685076104094
2.081285411942188        0.006640407104031507
2.081285411942188        0.006639786194106469
2.091285411942188        0.006520692601203696
2.1012854119421878       0.00635745310801402
2.1012854119421878       0.00635849438331091
2.1112854119421876       0.006465802748930466
2.1212854119421873       0.006475989219093935
2.131285411942187        0.0064191929938905296
2.141285411942187        0.006330329168169856
2.1512854119421867       0.006234676257098424
2.1612854119421865       0.006151888308867683
2.1612854119421865       0.006151929668628351
2.1637854119421864       0.0061524861714864695
2.1662854119421864       0.006057890684780555
2.1712854119421863       0.005846753212173077
2.181285411942186        0.005651739058403632
2.181285411942186        0.005652123715022689
2.191285411942186        0.005568970530238707
2.191285411942186        0.00556592196771042
2.2012854119421856       0.005510634560457802
2.2012854119421856       0.0055073418452436
2.2112854119421854       0.005461139295587225
2.2112854119421854       0.005458768098288384
2.2137854119421854       0.005401533884410135
2.2162854119421853       0.0053559883466704206
2.2187854119421853       0.005317350158616854
2.2187854119421853       0.00530717680480167
2.228785411942185        0.005268096138346095
2.228785411942185        0.0052700700388604894
2.233785411942185        0.005254541763714728
2.233785411942185        0.005253312250030288
2.2437854119421847       0.005183688969292825
2.2437854119421847       0.0051842436243503855
2.2537854119421845       0.005088787386395548
2.2537854119421845       0.005089213092591537
2.2587854119421844       0.005046204005708897
2.2637854119421843       0.004960832233381635
2.2637854119421843       0.004957425021373876
2.273785411942184        0.004915188358174845
2.273785411942184        0.004907930686076558
2.276285411942184        0.0048955006868578455
2.278785411942184        0.00483708823628996
2.283785411942184        0.004722730810681475
2.283785411942184        0.004711033654832084
2.290865411942184        0.004708900247304623
2.2979454119421843       0.004687645822751361
2.2979454119421843       0.004702442890844316
2.307945411942184        0.004574693083347469
2.307945411942184        0.004567853329222413
2.312945411942184        0.004164502330933004
2.312945411942184        0.00417122987641334
2.3229454119421837       0.004240159890343126
2.3229454119421837       0.004227444547374483
2.3279454119421836       0.0043723172246192855
2.3329454119421835       0.004277139656516833
2.3329454119421835       0.004274492202676044
2.3347154119421836       0.004254299193747878
2.3364854119421836       0.0042242750360101805
2.3382554119421837       0.004187284180705558
2.3417954119421838       0.004144680155257832
2.3417954119421838       0.004141498415613509
2.348875411942184        0.0040577963202328635
2.348875411942184        0.004055236787459202
2.3497604119421838       0.004057303000377412
2.3506454119421836       0.004055958106900879
2.3515304119421834       0.0040361993706317795
2.3533004119421834       0.004017279643512596
2.3533004119421834       0.004022455825732421
2.3568404119421835       0.003965208431550536
2.3568404119421835       0.003964983709410334
2.3639204119421837       0.0038239387162232637
2.3639204119421837       0.0038237109295799834
2.367460411942184        0.003821159971562245
2.367460411942184        0.003819663247604365
2.369230411942184        0.003766402386987111
2.371000411942184        0.003730223904775329
2.371000411942184        0.00372689031079591
2.374540411942184        0.003717947976085087
2.374540411942184        0.0037179402443640076
2.376310411942184        0.003667399853964342
2.378080411942184        0.003617473721146975
2.378080411942184        0.003616484413500754
2.3810529250390116       0.0035889218069065296
2.3810529250390116       0.003587496988164806
2.382539181587425        0.00357084002830391
2.3840254381358386       0.0035593453191246245
2.3840254381358386       0.0035588625891566465
2.386997951232666        0.0035573387561012478
2.386997951232666        0.0035571224307078854
2.3884842077810795       0.0035312435314755614
2.389970464329493        0.003516963611539803
2.389970464329493        0.0035169071583044872
2.3929429774263205       0.003514914968528928
2.3929429774263205       0.0035148767555969775
2.394429233974734        0.0035397655279703275
2.3959154905231475       0.0035279481975227997
2.3959154905231475       0.0035298497570884248
2.398888003619975        0.003455032139307139
2.398888003619975        0.0034546787536105655
2.4003742601683884       0.003420726194113162
2.4003742601683884       0.003419270689798866
2.403346773265216        0.0032918053946722793
2.403346773265216        0.0032930441720836583
2.4048330298136293       0.0031810661071385304
2.4048330298136293       0.003178743122689634
2.407805542910457        0.003163530761110013
2.407805542910457        0.003160366190787644
2.4092917994588703       0.00317268614168564
2.4092917994588703       0.0031718431210653146
2.4122643125556977       0.0031920376812287488
2.4122643125556977       0.003191804781746497
2.4137505691041112       0.0031564795795612118
2.4137505691041112       0.003156532958954999
2.4167230822009387       0.003247306906684587
2.4167230822009387       0.0032446123370715764
2.418209338749352        0.003250499520981217
2.418209338749352        0.003250433999921285
2.4211818518461796       0.00327725067230571
2.4211818518461796       0.0032782488218838918
2.421553415983283        0.003239024415544172
2.421924980120387        0.0032391041065661826
2.4222965442574904       0.0032528468585204043
2.423039672531697        0.003283361222817475
2.423039672531697        0.0032827227079688416
2.4260121856285246       0.0033564507225525286
2.4260121856285246       0.0033565726824287545
2.427498442176938        0.003288201190206584
2.427498442176938        0.0032862851206843548
2.4304709552737656       0.0031451571622176724
2.4304709552737656       0.003143513496322442
2.431957211822179        0.003057665714973918
2.4323287759592827       0.0030060701907163624
2.4323287759592827       0.0030073070952851486
2.433815032507696        0.003051825540626319
2.433815032507696        0.0030510149214087352
2.4367875456045236       0.002900345716772175
2.4367875456045236       0.002900136676356555
2.438273802152937        0.002867725467223768
2.438273802152937        0.002869794990325702
2.439016930427144        0.0028821808793120206
2.4397600587013506       0.002873732183064203
2.4397600587013506       0.0028725427633027358
2.441246315249764        0.0028478408366301895
2.441246315249764        0.002848249564887592
2.441989443523971        0.002811735042946347
2.4427325717981776       0.0027975712872923414
2.4427325717981776       0.002801442018661015
2.444218828346591        0.0027896754828810044
2.444218828346591        0.0027761815690066985
2.444961956620798        0.002969777354381621
2.4457050848950046       0.0029835938149531775
2.4457050848950046       0.0029876738072390392
2.447191341443418        0.0028813704996129112
2.447191341443418        0.002884086369888978
2.447934469717625        0.0027423190359920913
2.4486775979918316       0.002706746555984022
2.4486775979918316       0.002714371595258485
2.450163854540245        0.002710615199445158
2.450163854540245        0.002708863097204521
2.450906982814452        0.0026685859622148887
2.4516501110886586       0.002645122088667639
2.4516501110886586       0.0026380437960021007
2.453136367637072        0.0026665223623358048
2.453136367637072        0.002643831506086297
2.453879495911279        0.002772799954191274
2.4546226241854856       0.002852023506053677
2.4546226241854856       0.002851843840519057
2.455960255079058        0.002734697810103867
2.455960255079058        0.002734874439548878
2.4566290705258442       0.002751530649027379
2.4572978859726304       0.0027364698833372454
2.4572978859726304       0.0027437462220311452
2.4579667014194166       0.002859846115104217
2.4585686353215244       0.0028450446107729926
2.4585686353215244       0.0028475458772390765
2.4597725031257394       0.0026807962466074073
2.4597725031257394       0.00269138105280127
2.460374437027847        0.0028259865929168744
2.460976370929955        0.002822391620554976
2.460976370929955        0.00281998491203023
2.46218023873417         0.0028729640851343254
2.46218023873417         0.0028469195311586065
2.4627821726362775       0.002683784816457334
2.4633841065383852       0.0025914899626131548
2.4633841065383852       0.0025907799706911296
2.4645879743426002       0.002516310054642267
2.4645879743426002       0.0025194485696379033
2.465189908244708        0.002619618599635637
2.4657918421468157       0.0026238296528531373
2.4657918421468157       0.002614599290770396
2.4663335826587125       0.00251652362055722
2.4668753231706093       0.0024725521810290904
2.4668753231706093       0.0024620195674357297
2.467958804194403        0.002606851761935338
2.468229674450351        0.0026047021747482683
2.468229674450351        0.002587756527421079
2.4693131554741448       0.002542322447780191
2.4693131554741448       0.0025379270109822383
2.4698548959860416       0.002576862002903746
2.4703966364979384       0.0025604753414801285
2.4703966364979384       0.0025593383753902757
2.4705320716259127       0.0025279013262970162
2.470802941881861        0.002499696124375582
2.471073812137809        0.002481972390227724
2.471073812137809        0.002482103536192038
2.4721572931616027       0.0024217062185266473
2.4721572931616027       0.0024201608465100957
2.4726990336734995       0.0024107912153089814
2.4732407741853963       0.0023805903739695065
2.4732407741853963       0.002371450570911454
2.473782514697293        0.00235749525208254
2.473782514697293        0.0023558974205149623
2.4744326033115693       0.002477428382710676
2.4744326033115693       0.0024778932657628684
2.4757327805401217       0.002409270947695795
2.4757327805401217       0.0024101862990217812
2.476382869154398        0.002230952700871952
2.476382869154398        0.0022290499115834063
2.476707913461536        0.002141666659541148
2.477097966630102        0.002080825258900937
2.477097966630102        0.0020808984195204265
2.4776410766620125       0.0020463054520472417
2.4776410766620125       0.002044782921416591
2.477912631677968        0.002012393699802814
2.4781841866939236       0.0019775134324382868
2.4781841866939236       0.001978716322310198
2.4787272967258343       0.0019545568414451077
