% Model:              2D_2018_fixed_bottom_liquid__voltage_sweeps__2_wd.mph
% Version:            COMSOL 5.4.0.388
% Date:               Jun 24 2021, 11:23
% Table:              Probe Table 5 - 
% Time (s)               Spatial coordinate x (mm), x_center_of_mass
0                        26.800001253802204
2.34375E-5               26.800001064653593
4.6875E-5                26.80000068016953
9.375E-5                 26.79999910961689
1.875E-4                 26.799992692779444
2.8125000000000003E-4    26.799982986232063
4.6875000000000004E-4    26.79995078763073
6.5625E-4                26.799906344112266
0.00103125               26.79977392212148
0.00140625               26.799603502270767
0.00215625               26.799153335637826
0.00290625               26.79863263086591
0.0036562499999999998    26.798075989340788
0.005156249999999999     26.796964214521584
0.005156249999999999     26.79696080031784
0.006656249999999999     26.796014139714003
0.006656249999999999     26.796012940361383
0.007459126775003793     26.79555726736941
0.007459126775003793     26.795558984631523
0.00786056516250569      26.79534195169704
0.00786056516250569      26.795341983038487
0.008490178311521985     26.795017960533485
0.008490178311521985     26.795018741756273
0.008804984886030131     26.79485765284282
0.008804984886030131     26.794860092082104
0.009119791460538278     26.79469161345574
0.009119791460538278     26.794694411553884
0.009277194747792351     26.794606238558895
0.009277194747792351     26.794605447469543
0.00937094059457623      26.794550986656443
0.00937094059457623      26.794551485396862
0.009558432288143985     26.794432984611007
0.009558432288143985     26.794432971170878
0.009652178134927863     26.794370862796317
0.009652178134927863     26.794370347981477
0.009745923981711741     26.794305357059383
0.00983966982849562      26.79423756006315
0.00983966982849562      26.794238040399485
0.009886542751887559     26.79420330513595
0.009933415675279498     26.794167855605295
0.009980288598671437     26.79413169436295
0.009980288598671437     26.79413160439912
0.010167780292239192     26.79397662340559
0.010167780292239192     26.79397638952332
0.010542763679374702     26.7936380635642
0.010542763679374702     26.793638478190662
0.010730255372942457     26.793463108403902
0.010917747066510212     26.793282843741274
0.010917747066510212     26.793282629971436
0.011292730453645723     26.79290758409123
0.011292730453645723     26.792908306590025
0.012042697227916744     26.79212079198444
0.012042697227916744     26.792120019650387
0.012417680615052254     26.79171552121925
0.012792664002187764     26.791301633999872
0.012792664002187764     26.79130284077094
0.013353097269549294     26.790660009186126
0.013353097269549294     26.79065886232997
0.014473963804272355     26.78933084850504
0.014473963804272355     26.78933024441229
0.015034397071633884     26.788655406528818
0.015594830338995414     26.787979135803216
0.015594830338995414     26.78797825012509
0.016478410570497704     26.786920157185623
0.016478410570497704     26.786921447204232
0.018245571033502286     26.78485403379755
0.018245571033502286     26.784852834692305
0.019129151265004578     26.78381949834556
0.02001273149650687      26.782786875344605
0.02001273149650687      26.782786237808835
0.02157183955399187      26.780961343942188
0.02157183955399187      26.780961230794297
0.024690055668961867     26.777487817209252
0.024690055668961867     26.777489348746276
0.026249163726446867     26.775807342253366
0.026249163726446867     26.775806895219507
0.029367379841416866     26.77281976179252
0.029367379841416866     26.77281716064381
0.033170750938571615     26.769758184747463
0.033170750938571615     26.769756443660356
0.035875637939777175     26.767850665604353
0.035875637939777175     26.767850236167156
0.04128541194218829      26.764992525260215
0.04128541194218829      26.76499182955878
0.05128541194218829      26.76224663411009
0.05128541194218829      26.76224313631946
0.056285411942188286     26.761407852733456
0.061285411942188284     26.76105556547678
0.061285411942188284     26.76105029021065
0.07128541194218828      26.761803957956563
0.07128541194218828      26.761798682639924
0.08128541194218827      26.763652879736334
0.09128541194218827      26.766321895843358
0.09128541194218827      26.766321225682418
0.10128541194218826      26.7695713772151
0.11128541194218826      26.773233487751888
0.12128541194218825      26.77710302695937
0.13128541194218826      26.78119613988808
0.14128541194218827      26.78533940288377
0.15128541194218828      26.789469904218908
0.1612854119421883       26.79358882174279
0.1612854119421883       26.79359323188112
0.1712854119421883       26.797542685463235
0.1812854119421883       26.801370170644123
0.19128541194218832      26.80511168940584
0.20128541194218832      26.808653077623802
0.21128541194218833      26.812035102618765
0.22128541194218834      26.815257134683623
0.23128541194218835      26.818318997574163
0.24128541194218836      26.82122286906608
0.25128541194218834      26.823972118180286
0.26128541194218835      26.826571158659323
0.27128541194218836      26.829024864826486
0.28128541194218837      26.831338933911795
0.2912854119421884       26.83351898403272
0.3012854119421884       26.83557121356599
0.3112854119421884       26.837501181052797
0.3212854119421884       26.839315726706896
0.3312854119421884       26.84101898234145
0.3412854119421884       26.842620719180985
0.35128541194218843      26.84411889980239
0.36128541194218844      26.84553021600087
0.37128541194218845      26.846861142141307
0.38128541194218846      26.848112746945436
0.38128541194218846      26.84813396730127
0.39128541194218847      26.849403247723053
0.4012854119421885       26.85066235316292
0.4112854119421885       26.851894052053648
0.4212854119421885       26.85304255228595
0.4312854119421885       26.854120203554395
0.4412854119421885       26.855129019377987
0.4512854119421885       26.856072269286877
0.46128541194218853      26.856953739778387
0.47128541194218854      26.857777530051557
0.48128541194218855      26.85856830755661
0.49128541194218855      26.859307543758305
0.5012854119421886       26.8600017507672
0.5112854119421886       26.860650711939574
0.5212854119421886       26.861257738734466
0.5312854119421886       26.86182476666836
0.5412854119421886       26.86235390056318
0.5512854119421886       26.862846706447367
0.5612854119421886       26.863304557431015
0.5712854119421886       26.863728665429164
0.5812854119421886       26.864120209071668
0.5912854119421886       26.864480358201632
0.6012854119421887       26.864810268037793
0.6112854119421887       26.865111045209176
0.6212854119421887       26.86538373339718
0.6312854119421887       26.865629336529864
0.6412854119421887       26.86584884843536
0.6512854119421887       26.866043257199344
0.6612854119421887       26.866213520494604
0.6712854119421887       26.866360551265583
0.6812854119421887       26.866485241035537
0.6912854119421887       26.866588498997594
0.7012854119421887       26.866671251968434
0.7112854119421887       26.866734396114847
0.7212854119421888       26.866778756785155
0.7312854119421888       26.86680512092843
0.7412854119421888       26.866814313702665
0.7512854119421888       26.86680721680981
0.7612854119421888       26.866784688083975
0.7712854119421888       26.866747468810065
0.7812854119421888       26.86669621634863
0.7912854119421888       26.866631646438066
0.8012854119421888       26.866554598428177
0.8112854119421888       26.866465918770388
0.8212854119421888       26.86636627059659
0.8312854119421889       26.86625614244859
0.8412854119421889       26.866136092802098
0.8512854119421889       26.866006908256068
0.8612854119421889       26.865869462865287
0.8712854119421889       26.865724364460586
0.8812854119421889       26.86557188932382
0.8912854119421889       26.865412369591034
0.9012854119421889       26.86524649993714
0.9112854119421889       26.865075221705894
0.9212854119421889       26.86489913255327
0.931285411942189        26.86471826816636
0.941285411942189        26.864532661633586
0.951285411942189        26.864342840572498
0.961285411942189        26.864149924846654
0.971285411942189        26.863954957816368
0.981285411942189        26.86375895838724
0.991285411942189        26.86356428505974
1.001285411942189        26.863375997605146
1.011285411942189        26.863202317385984
1.021285411942189        26.863053256568193
1.031285411942189        26.862939038410225
1.041285411942189        26.862869576464348
1.051285411942189        26.862853453924064
1.061285411942189        26.862896229790287
1.071285411942189        26.862997553033654
1.081285411942189        26.863149332755963
1.091285411942189        26.863337179960972
1.101285411942189        26.863542440301135
1.111285411942189        26.863744585305074
1.1212854119421891       26.863922382314858
1.1312854119421891       26.86405511190964
1.1412854119421891       26.8641263082918
1.1512854119421891       26.86412623006794
1.1612854119421891       26.8640529636745
1.1712854119421892       26.86391143436237
1.1812854119421892       26.86371069972737
1.1912854119421892       26.86346401270344
1.2012854119421892       26.86318756697165
1.2112854119421892       26.86289792573066
1.2212854119421892       26.862610025491996
1.2312854119421892       26.862333162399974
1.2412854119421892       26.862072058933457
1.2512854119421892       26.86182752298685
1.2612854119421892       26.861594591077584
1.2712854119421892       26.861364478509596
1.2812854119421893       26.861122172049292
1.2912854119421893       26.860850097205155
1.3012854119421893       26.86053228809295
1.3112854119421893       26.860151851438722
1.3212854119421893       26.859697071626456
1.3312854119421893       26.859127541582772
1.3412854119421893       26.85848313140274
1.3512854119421893       26.85777117008105
1.3612854119421893       26.85700131599742
1.3712854119421893       26.856183668935508
1.3812854119421893       26.85532922693401
1.3912854119421894       26.85445002656613
1.4012854119421894       26.85355733335542
1.4112854119421894       26.852660796207463
1.4212854119421894       26.85176689645354
1.4312854119421894       26.850879084312858
1.4412854119421894       26.849997778328888
1.4512854119421894       26.849119125711344
1.4612854119421894       26.84823674023569
1.4712854119421894       26.847340943641104
1.4812854119421894       26.846419506288537
1.4912854119421894       26.845459368410094
1.5012854119421895       26.8444499033396
1.5112854119421895       26.84338179354907
1.5212854119421895       26.84224616762285
1.5312854119421895       26.841037533003636
1.5412854119421895       26.83975350941315
1.5512854119421895       26.83839428848942
1.5612854119421895       26.836963079952884
1.5712854119421895       26.835469257365155
1.5812854119421895       26.83394576579469
1.5912854119421895       26.83237655961076
1.6012854119421895       26.83077995014666
1.6112854119421895       26.829164582581324
1.6212854119421896       26.827544060765433
1.6312854119421896       26.82592516570074
1.6412854119421896       26.82430932623914
1.6512854119421896       26.822690771872264
1.6612854119421896       26.821062653552413
1.6712854119421896       26.819416638601613
1.6812854119421896       26.817758067309928
1.6912854119421896       26.81607243357305
1.7012854119421896       26.814342415677874
1.7012854119421896       26.814323156916014
1.7112854119421896       26.81214567613431
1.7212854119421896       26.80946601736552
1.7312854119421897       26.80646558998248
1.7412854119421897       26.802956129005867
1.7512854119421897       26.799222427921425
1.7612854119421897       26.79538616788408
1.7712854119421897       26.791564438314932
1.7812854119421897       26.787847164730575
1.7912854119421897       26.784290292604705
1.8012854119421897       26.780916940510313
1.8012854119421897       26.78090522403008
1.8112854119421897       26.777768175330568
1.8212854119421897       26.77486626874057
1.8312854119421897       26.772102477624376
1.8412854119421898       26.769529188236234
1.8512854119421898       26.766991748081153
1.8612854119421898       26.76440912727541
1.8712854119421898       26.76170103809659
1.8812854119421898       26.758801565809147
1.8912854119421898       26.75564102666503
1.9012854119421898       26.75216919550849
1.9012854119421898       26.752156430872283
1.9112854119421898       26.74838095076959
1.9212854119421898       26.744321629559668
1.9312854119421898       26.740072836574512
1.9412854119421898       26.735475262080286
1.9512854119421899       26.73065269667758
1.9612854119421899       26.725631656158612
1.9712854119421899       26.720495411615385
1.9712854119421899       26.720487961192838
1.9812854119421899       26.715100411533086
1.9912854119421899       26.70969657371942
2.00128541194219         26.704323434576583
2.0112854119421897       26.699037800933723
2.0212854119421895       26.693792183635857
2.0212854119421895       26.693774706125648
2.0312854119421893       26.687164182460418
2.041285411942189        26.678661280887262
2.051285411942189        26.6688915950409
2.051285411942189        26.668890358841097
2.0612854119421886       26.65846339554761
2.0712854119421884       26.648955752677132
2.081285411942188        26.640212650369797
2.081285411942188        26.640197759499422
2.091285411942188        26.631527454916963
2.1012854119421878       26.622142418499735
2.1012854119421878       26.622141856083605
2.1112854119421876       26.614191277782954
2.1212854119421873       26.60843554549733
2.131285411942187        26.604109228033362
2.141285411942187        26.601968856938804
2.1512854119421867       26.600560590636807
2.1612854119421865       26.59912487416366
2.1612854119421865       26.599111781898593
2.1637854119421864       26.598685189461527
2.1662854119421864       26.598096572537834
2.1712854119421863       26.595714912227013
2.181285411942186        26.585124912185623
2.181285411942186        26.585122396511597
2.191285411942186        26.56997847724093
2.191285411942186        26.569976481808634
2.2012854119421856       26.55090049625996
2.2012854119421856       26.55089332406298
2.2112854119421854       26.529042471880988
2.2112854119421854       26.529042197969506
2.2137854119421854       26.52339898892496
2.2162854119421853       26.51758278909932
2.2187854119421853       26.511603535833597
2.2187854119421853       26.511598288267876
2.228785411942185        26.486957738015178
2.228785411942185        26.48695364397768
2.233785411942185        26.47452292473887
2.233785411942185        26.474519129334876
2.2437854119421847       26.4507584862084
2.2437854119421847       26.450757653356515
2.2537854119421845       26.42861841739685
2.2537854119421845       26.428610240421353
2.2587854119421844       26.417934729862402
2.2637854119421843       26.40770232952883
2.2637854119421843       26.407701864698108
2.273785411942184        26.39010681815665
2.273785411942184        26.390101625852893
2.276285411942184        26.385856365859645
2.278785411942184        26.38171577729012
2.283785411942184        26.373553645172166
2.283785411942184        26.37355445867846
2.290865411942184        26.362864487207002
2.2979454119421843       26.353500177905502
2.2979454119421843       26.35349935497843
2.307945411942184        26.340538421385407
2.307945411942184        26.340541926451753
2.312945411942184        26.333654564583487
2.312945411942184        26.333650507331406
2.3229454119421837       26.31811937238898
2.3229454119421837       26.31811349166969
2.3279454119421836       26.309899964145206
2.3329454119421835       26.301103069781092
2.3329454119421835       26.30110093601626
2.3347154119421836       26.297892220011473
2.3364854119421836       26.294569668945986
2.3382554119421837       26.29111399245738
2.3417954119421838       26.283748790611522
2.3417954119421838       26.28374369812488
2.348875411942184        26.26705100547511
2.348875411942184        26.267053201543007
2.3497604119421838       26.2649290728823
2.3506454119421836       26.262774067231824
2.3515304119421834       26.260588098605695
2.3533004119421834       26.256095827208604
2.3533004119421834       26.256090870234285
2.3568404119421835       26.246412771371883
2.3568404119421835       26.246413414926838
2.3639204119421837       26.22427170450907
2.3639204119421837       26.224265042411
2.367460411942184        26.212417795427047
2.367460411942184        26.212418441055686
2.369230411942184        26.20629223063739
2.371000411942184        26.19996606443959
2.371000411942184        26.199964688577953
2.374540411942184        26.186493747017472
2.374540411942184        26.186490667551034
2.376310411942184        26.179524620949465
2.378080411942184        26.172326520579166
2.378080411942184        26.172326981341495
2.3810529250390116       26.159622371853203
2.3810529250390116       26.15962022499632
2.382539181587425        26.153113166636672
2.3840254381358386       26.146475624102557
2.3840254381358386       26.146472860047687
2.386997951232666        26.132778417748415
2.386997951232666        26.132777100901134
2.3884842077810795       26.1258244053924
2.389970464329493        26.118774297279128
2.389970464329493        26.118773696937335
2.3929429774263205       26.104338152469115
2.3929429774263205       26.104334513891953
2.394429233974734        26.097047982731578
2.3959154905231475       26.08972576103146
2.3959154905231475       26.089722629180535
2.398888003619975        26.074657605636112
2.398888003619975        26.074651580770183
2.4003742601683884       26.066960753556806
2.4003742601683884       26.066958251892636
2.403346773265216        26.05068175056994
2.403346773265216        26.050675957514965
2.4048330298136293       26.04226368122948
2.4048330298136293       26.0422622917477
2.407805542910457        26.024644609399765
2.407805542910457        26.024639620631465
2.4092917994588703       26.01565821781757
2.4092917994588703       26.015655714092635
2.4122643125556977       25.99721610374174
2.4122643125556977       25.997211533945784
2.4137505691041112       25.98788959177197
2.4137505691041112       25.987887533893282
2.4167230822009387       25.969241049727607
2.4167230822009387       25.96923618230192
2.418209338749352        25.959945764798146
2.418209338749352        25.95994308597839
2.4211818518461796       25.941770939523625
2.4211818518461796       25.94175983479666
2.421553415983283        25.939492773540145
2.421924980120387        25.937232925854158
2.4222965442574904       25.934980886721604
2.423039672531697        25.93051270755676
2.423039672531697        25.93051363540738
2.4260121856285246       25.913217641425803
2.4260121856285246       25.913211014268168
2.427498442176938        25.904683562285395
2.427498442176938        25.90468052884527
2.4304709552737656       25.887489977715024
2.4304709552737656       25.88748284312214
2.431957211822179        25.878797637143993
2.4323287759592827       25.87661965763397
2.4323287759592827       25.876617135773383
2.433815032507696        25.867794358014905
2.433815032507696        25.86779435344984
2.4367875456045236       25.849691382484163
2.4367875456045236       25.849682952057556
2.438273802152937        25.840497669981005
2.438273802152937        25.8404926877557
2.439016930427144        25.835866739098353
2.4397600587013506       25.831210486010573
2.4397600587013506       25.83120729399304
2.441246315249764        25.821769314976105
2.441246315249764        25.82176596677001
2.441989443523971        25.81701057823118
2.4427325717981776       25.812218368520316
2.4427325717981776       25.812211878628858
2.444218828346591        25.80247914573432
2.444218828346591        25.802483036481746
2.444961956620798        25.79757694393967
2.4457050848950046       25.792637385040944
2.4457050848950046       25.792627879251818
2.447191341443418        25.782595359419588
2.447191341443418        25.78259139668098
2.447934469717625        25.777530417580092
2.4486775979918316       25.772426645058573
2.4486775979918316       25.772422990775098
2.450163854540245        25.762018283980748
2.450163854540245        25.762008509957514
2.450906982814452        25.756753144914065
2.4516501110886586       25.75144935966791
2.4516501110886586       25.751441676112275
2.453136367637072        25.740691433663137
2.453136367637072        25.740697201519097
2.453879495911279        25.735290232777924
2.4546226241854856       25.729864489239063
2.4546226241854856       25.729859365945646
2.455960255079058        25.720048885489692
2.455960255079058        25.720042722882773
2.4566290705258442       25.715126497104283
2.4572978859726304       25.710201103539145
2.4572978859726304       25.710193718781735
2.4579667014194166       25.705254879725533
2.4585686353215244       25.700799747511685
2.4585686353215244       25.70079635768626
2.4597725031257394       25.69181360560253
2.4597725031257394       25.69180632707773
2.460374437027847        25.687293195747774
2.460976370929955        25.68275993327358
2.460976370929955        25.682756520433692
2.46218023873417         25.673562809592994
2.46218023873417         25.673564199338024
2.4627821726362775       25.668927299273967
2.4633841065383852       25.664251588189636
2.4633841065383852       25.664248160883687
2.4645879743426002       25.654762349152907
2.4645879743426002       25.65475092748573
2.465189908244708        25.649974846103508
2.4657918421468157       25.64517370784353
2.4657918421468157       25.645170253137042
2.4663335826587125       25.640827403926437
2.4668753231706093       25.636468473094645
2.4668753231706093       25.636458500748514
2.467958804194403        25.627683895704298
2.468229674450351        25.62548647374702
2.468229674450351        25.625488952939072
2.4693131554741448       25.616624938099584
2.4693131554741448       25.616624801730104
2.4698548959860416       25.612171172712173
2.4703966364979384       25.60769481148596
2.4703966364979384       25.60769192572737
2.4705320716259127       25.606570871714723
2.470802941881861        25.604322706721003
2.471073812137809        25.602067913220694
2.471073812137809        25.602060617830897
2.4721572931616027       25.592900639842178
2.4721572931616027       25.592897629003197
2.4726990336734995       25.588274191268138
2.4732407741853963       25.583601653825255
2.4732407741853963       25.583598502207163
2.473782514697293        25.578867486178524
2.473782514697293        25.578871660976922
2.4744326033115693       25.573092993850324
2.4744326033115693       25.57309402751151
2.4757327805401217       25.560987685816233
2.4757327805401217       25.56097839793213
2.476382869154398        25.554758807052345
2.476382869154398        25.554756756196017
2.476707913461536        25.55160211050031
2.477097966630102        25.54774772129508
2.477097966630102        25.54774490686911
2.4776410766620125       25.5422282130061
2.4776410766620125       25.54222627516364
2.477912631677968        25.539426800386753
2.4781841866939236       25.53658587692366
2.4781841866939236       25.536583972058672
2.4787272967258343       25.530717632784373
