% Model:              2D_2018_fixed_bottom_liquid__voltage_sweeps__2_wd_0p8mps.mph
% Version:            COMSOL 5.4.0.388
% Date:               Jun 25 2021, 16:20
% Table:              Probe Table 6 - 
% Time (s)               y-fluid_thickness (mm), droplet_gap
0                        0.10000000201642592
2.34375E-5               0.09999999900978887
4.6875E-5                0.09999997560185833
9.375E-5                 0.09999974394589135
1.875E-4                 0.09999773442228697
2.8125000000000003E-4    0.09999338882077076
4.6875000000000004E-4    0.09996930623391506
6.5625E-4                0.09992400165351667
0.00103125               0.09970488236326269
0.00140625               0.0993163370341288
0.00215625               0.0975715394517223
0.00290625               0.09460322507640583
0.0036562499999999998    0.09018667649510897
0.005156249999999999     0.07739350895086738
0.005156249999999999     0.07739350895086738
0.006656249999999999     0.05364138292486943
0.006656249999999999     0.05364138292486943
0.00752240406505196      0.03713733036893535
0.00752240406505196      0.03712671025408749
0.007955481097577941     0.028206760767602364
0.007955481097577941     0.028196528673241333
0.008388558130103922     0.018784916983694694
0.008388558130103922     0.018789405068681247
0.008605096646366913     0.014046720772023426
0.008605096646366913     0.014041974398713419
0.008821635162629904     0.009466168905242732
0.008821635162629904     0.009464647404716035
0.008929904420761399     0.007303502025528957
0.008929904420761399     0.007303518363732751
0.009038173678892893     0.005403818882802457
0.009038173678892893     0.0054040098585589336
0.009254712195155885     0.0033168721670986945
0.009254712195155885     0.0033168827755871745
0.009385830643896935     0.0025997316532599436
0.009385830643896935     0.0025996757047948987
0.00945138986826746      0.002285094969449713
0.009516949092637986     0.002032365048850425
0.009516949092637986     0.0020323728386335664
0.009648067541379037     0.0017841029377641156
0.009648067541379037     0.0017846360737248414
0.009713626765749562     0.0016814183558446633
0.009779185990120088     0.0015954792096438235
0.009779185990120088     0.001593754705953368
0.009910304438861138     0.0015177112853599628
0.009910304438861138     0.0015176723298670515
0.009975863663231664     0.001467946437495437
0.01004142288760219      0.001426336649960197
0.010106982111972715     0.001403855813174315
0.010106982111972715     0.001403795945163159
0.010238100560713765     0.0014684520299010524
0.010238100560713765     0.0014654446372228472
0.010500337458195867     0.00170113149166283
0.010500337458195867     0.0017012257553274124
0.010631455906936918     0.0017478087204979807
0.010762574355677968     0.001791430876175136
0.010762574355677968     0.0017917523435504248
0.01099858756341186      0.0019086606303829814
0.01099858756341186      0.0019068711997944666
0.011470613978879643     0.002249210493709443
0.011470613978879643     0.00224469198862199
0.011706627186613534     0.0022957627221339635
0.011942640394347425     0.0023521670966487537
0.011942640394347425     0.002351318326505609
0.01236746416826843      0.0024387118734725023
0.01236746416826843      0.0024377969090631432
0.01321711171611044      0.002817385230222298
0.01321711171611044      0.0028178932135291927
0.013641935490031445     0.0028774667293271494
0.01406675926395245      0.002983196272411757
0.01406675926395245      0.0029837950184311013
0.01483144205701026      0.00327036243083674
0.01483144205701026      0.003270587489743581
0.016360807643125877     0.0035905498328857484
0.016360807643125877     0.0035875707314683702
0.017125490436183687     0.003620659222202619
0.017125490436183687     0.003616441738327897
0.018654856022299306     0.0037530188455171636
0.018654856022299306     0.0037545753570761287
0.019419538815357115     0.003721579263484334
0.020184221608414925     0.0037515887653808214
0.020184221608414925     0.003772219544683625
0.021713587194530544     0.003886214065793557
0.021713587194530544     0.0038577924081277352
0.022478269987588353     0.0039535181066570856
0.023242952780646163     0.0040382144202546
0.023242952780646163     0.0040421595143107225
0.02461938180815022      0.004135522609686158
0.02461938180815022      0.004130423846574784
0.027372239863158333     0.004391599701719564
0.027372239863158333     0.004392050756361985
0.02874866889066239      0.004433167860198699
0.030125097918166446     0.00450618241718383
0.030125097918166446     0.0045072894157569335
0.0315015269456705       0.004622110758775982
0.032877955973174555     0.004709600643103707
0.032877955973174555     0.0047098364604112285
0.03563081402818267      0.004892636052495226
0.03563081402818267      0.004894009639675855
0.041136530138198894     0.005248304742269845
0.041136530138198894     0.005248264704970848
0.051136530138198896     0.005778649958956567
0.051136530138198896     0.005778989455850706
0.056136530138198894     0.005973594377549178
0.056136530138198894     0.005973638198519902
0.0661365301381989       0.006362057901134182
0.0661365301381989       0.006361892938621348
0.07613653013819889      0.00667933863913138
0.07613653013819889      0.006679662774200425
0.08613653013819889      0.006956069599093218
0.09613653013819888      0.007164872869906171
0.09613653013819888      0.00716478859821585
0.10613653013819888      0.007345164535582389
0.11613653013819887      0.0074901726059410124
0.12613653013819887      0.0076113560020718216
0.13613653013819887      0.007702838004357802
0.14613653013819888      0.007775764514906906
0.1561365301381989       0.007837177931162113
0.1661365301381989       0.007876778663781434
0.1661365301381989       0.007875660004113064
0.1761365301381989       0.007975990592656423
0.18613653013819892      0.00803310721816811
0.19613653013819893      0.008070743368073473
0.20613653013819894      0.008092585866914352
0.21613653013819895      0.008111219981895863
0.22613653013819895      0.008126612879276202
0.23613653013819896      0.008140033127631945
0.24613653013819897      0.008151689242776646
0.256136530138199        0.008160954370213611
0.266136530138199        0.00816895098129048
0.276136530138199        0.00817517678300796
0.286136530138199        0.008180805246900836
0.296136530138199        0.00818502712583713
0.306136530138199        0.00818856845459905
0.31613653013819903      0.008191256733356203
0.32613653013819904      0.00819338787772959
0.33613653013819905      0.008195160280537878
0.34613653013819906      0.008196381787600477
0.35613653013819907      0.008197411734682091
0.3661365301381991       0.008198131959179754
0.3761365301381991       0.00819845899309446
0.3861365301381991       0.00819923829630453
0.3961365301381991       0.00819877854884351
0.4061365301381991       0.008201090070283478
0.4161365301381991       0.008202240671434293
0.42613653013819913      0.008200294213810307
0.43613653013819914      0.008200400712886791
0.44613653013819915      0.008198927040813965
0.45613653013819916      0.008199307922617492
0.46613653013819917      0.00820019137339617
0.4761365301381992       0.008197673046208328
0.4861365301381992       0.008193348360126425
0.4961365301381992       0.00819246896453579
0.5061365301381991       0.008193415784666334
0.5161365301381992       0.008197299569138311
0.5261365301381992       0.00819368134536173
0.5261365301381992       0.008193585892947528
0.5361365301381992       0.008223293995809379
0.5461365301381992       0.008237539845863673
0.5561365301381992       0.008241514293942046
0.5661365301381992       0.008238838964183537
0.5761365301381992       0.008236951196775866
0.5861365301381992       0.0082354246720125
0.5961365301381992       0.008233992582744147
0.6061365301381992       0.008232384447607807
0.6161365301381992       0.008230755159100746
0.6261365301381993       0.008229413559955167
0.6361365301381993       0.008228183595897047
0.6461365301381993       0.008226858206927465
0.6561365301381993       0.008225427739943884
0.6661365301381993       0.008224082670963643
0.6761365301381993       0.008222803544052047
0.6861365301381993       0.008221569152492593
0.6961365301381993       0.008220368469912323
0.7061365301381993       0.008219195710219146
0.7161365301381993       0.008218042068582065
0.7261365301381993       0.008216899707541667
0.7361365301381994       0.008215764710840876
0.7461365301381994       0.008214632219125453
0.7561365301381994       0.008213443087825949
0.7661365301381994       0.008212271706039241
0.7761365301381994       0.008211115669818064
0.7861365301381994       0.008209973439719798
0.7961365301381994       0.008208843444800547
0.8061365301381994       0.008207724296608893
0.8161365301381994       0.008206615152213208
0.8261365301381994       0.008205501133669128
0.8361365301381994       0.008204341508790368
0.8461365301381994       0.008203179151344397
0.8561365301381995       0.008202014885378209
0.8661365301381995       0.008200849611143465
0.8761365301381995       0.008199684157476732
0.8861365301381995       0.008198519242172322
0.8961365301381995       0.00819735554231536
0.9061365301381995       0.008196193741708685
0.9161365301381995       0.008195034469361297
0.9261365301381995       0.008193878191618906
0.9361365301381995       0.008192725179840838
0.9461365301381995       0.00819157559799489
0.9561365301381995       0.008190430795888912
0.9661365301381996       0.0081893088701053
0.9761365301381996       0.00818825151387018
0.9861365301381996       0.008187323410039846
0.9961365301381996       0.008186431066734695
1.0061365301381995       0.00818580101813373
1.0161365301381995       0.008185445693780456
1.0261365301381995       0.00818533061040707
1.0361365301381995       0.008185397070370037
1.0461365301381995       0.008185578976326047
1.0561365301381995       0.008185803648269856
1.0661365301381995       0.008186002843393794
1.0761365301381995       0.008186129365414085
1.0861365301381996       0.008186173977038375
1.0961365301381996       0.008186109288862986
1.1061365301381996       0.008185831186331097
1.1161365301381996       0.008185579652122705
1.1261365301381996       0.008185356522079617
1.1361365301381996       0.0081851332897156
1.1461365301381996       0.008184858894440435
1.1561365301381996       0.008184451099538855
1.1661365301381996       0.008183784763061974
1.1761365301381996       0.0081826986180868
1.1861365301381996       0.008181035807449787
1.1961365301381996       0.008178478048038399
1.2061365301381997       0.008175037425777777
1.2161365301381997       0.00817100125820834
1.2261365301381997       0.008166426610593629
1.2361365301381997       0.008161006360905745
1.2461365301381997       0.008154755431269423
1.2561365301381997       0.008147939766068799
1.2661365301381997       0.008140391248741968
1.2761365301381997       0.008131918533376293
1.2861365301381997       0.00812301872050742
1.2961365301381997       0.008113135095951917
1.3061365301381997       0.008102794889644407
1.3161365301381998       0.00809155599130161
1.3261365301381998       0.008079907549733093
1.3361365301381998       0.008067458650256286
1.3461365301381998       0.00805425906438709
1.3561365301381998       0.008040443310109932
1.3661365301381998       0.008025968541629756
1.3761365301381998       0.008010903979021548
1.3861365301381998       0.007995136382966776
1.3961365301381998       0.007978620157381242
1.4061365301381998       0.007961333867754529
1.4161365301381998       0.00794328521585121
1.4261365301381999       0.007924178198278481
1.4361365301381999       0.007904410189470482
1.4461365301381999       0.00788365624277863
1.4561365301381999       0.007862456196887097
1.4661365301382          0.007840713304045014
1.4761365301382          0.007817564438865679
1.4861365301382          0.007793641818550426
1.4961365301382          0.007769282344272446
1.5061365301382          0.007744393333428828
1.5161365301382          0.007718562120340167
1.5261365301382          0.007692005969714855
1.5361365301382          0.007664390921004009
1.5461365301382          0.007635662446877928
1.5561365301382          0.007607750122670762
1.5661365301382          0.007576951672476958
1.5761365301382          0.00755224547887819
1.5761365301382          0.0075519153700754835
1.5861365301382          0.007528786356709918
1.5961365301382          0.007506005755279939
1.6061365301382          0.00747551027874575
1.6161365301382          0.007444213565942388
1.6261365301382          0.00741058322820164
1.6361365301382          0.007378141376343517
1.6461365301382          0.0073435470498120665
1.6561365301382          0.007307040972997364
1.6661365301382          0.007272617662535275
1.6761365301382          0.00723301400623556
1.6861365301382          0.007197220786828943
1.6961365301382          0.007158456813280076
1.7061365301382          0.007121026544854546
1.7161365301382001       0.007079708628702271
1.7161365301382001       0.007077919284119612
1.7261365301382001       0.007006233700714969
1.7361365301382001       0.00694304371625298
1.7461365301382001       0.006893752882893619
1.7561365301382001       0.006849412440468241
1.7661365301382002       0.006803883303582725
1.7761365301382002       0.006753400735803449
1.7761365301382002       0.006752037189191023
1.7861365301382002       0.006751594187675344
1.7886365301382001       0.006746106228667538
1.7936365301382          0.006725528135006174
1.8036365301382          0.006679614668025566
1.8136365301382          0.006632336457491547
1.8236365301382          0.006583858957987746
1.8336365301382          0.006535933658614618
1.8436365301382          0.006483506545071783
1.8536365301382          0.0064279480669134255
1.8636365301382          0.0063731132487645885
1.8636365301382          0.006372742015056752
1.8736365301382          0.0063426666582966015
1.8836365301382          0.006268455666981389
1.8936365301382          0.006202466457127121
1.9036365301382001       0.006152608447497401
1.9136365301382001       0.006089178379983448
1.9136365301382001       0.0060880040323781776
1.9236365301382001       0.005991819611862216
1.9336365301382001       0.005882164157553459
1.9436365301382001       0.005778733312300326
1.9436365301382001       0.0057774861536323205
1.9536365301382002       0.005668613102101112
1.9636365301382002       0.005569021466562008
1.9636365301382002       0.005568075621515192
1.9736365301382002       0.005651908935333863
1.9836365301382002       0.005611751896211076
1.9836365301382002       0.0056119516292935795
1.9936365301382002       0.005515182663356436
2.0036365301382          0.005381195835877078
2.0036365301382          0.005381186910750381
2.0136365301382          0.00533674848135577
2.0236365301381998       0.005245152831978919
2.0236365301381998       0.0052453013651546955
2.0336365301381996       0.0051214022946327944
2.0436365301381993       0.004995776606643836
2.0436365301381993       0.004990194120751447
2.053636530138199        0.004996480007912491
2.063636530138199        0.004901550680198787
2.063636530138199        0.004898292367528766
2.0736365301381987       0.004776155550845814
2.0736365301381987       0.00477463069473421
2.0836365301381985       0.004694727697111302
2.0836365301381985       0.004693433959985192
2.0936365301381983       0.004542831038482995
2.0936365301381983       0.0045427476890002975
2.103636530138198        0.004384533126773702
2.103636530138198        0.0043857605699143196
2.108636530138198        0.0043306728019889065
2.113636530138198        0.004271976359459129
2.113636530138198        0.004272003078481523
2.1236365301381976       0.00415425297748415
2.1236365301381976       0.004148174863486363
2.1286365301381975       0.0041275633832016725
2.1286365301381975       0.004123962527846029
2.1386365301381973       0.004125218448546367
2.1386365301381973       0.004125229329076351
2.143636530138197        0.004085838398018137
2.143636530138197        0.004085989660408771
2.153636530138197        0.004049543824607201
2.153636530138197        0.004049017565010537
2.154886530138197        0.004038624898892226
2.1561365301381974       0.0040230852614100455
2.1586365301381973       0.0039788902267603315
2.1586365301381973       0.003976309745182347
2.168636530138197        0.0038472224716369977
2.168636530138197        0.003836715750634226
2.173636530138197        0.0038714070167656864
2.173636530138197        0.0038709147091109744
2.183636530138197        0.0036824406867389144
2.183636530138197        0.0036836314954943362
2.184886530138197        0.003728381597115169
2.187386530138197        0.00371854390320437
2.189886530138197        0.003671917241179941
2.189886530138197        0.0036703537429892165
2.192386530138197        0.0035478072887228616
2.194886530138197        0.0034834305229153664
2.194886530138197        0.003483948371355277
2.1998865301381967       0.003528761168469872
2.1998865301381967       0.003531023957180617
2.2023865301381966       0.0033814206448559703
2.2053865301381967       0.003347449564383015
2.2053865301381967       0.003338812607733572
2.208926530138197        0.0035092923675915724
2.208926530138197        0.0035091238120032488
2.216006530138197        0.0032891799178228973
2.216006530138197        0.003287682764608127
2.219546530138197        0.003241015888317319
2.219546530138197        0.003239797460026766
2.221316530138197        0.003226363058406092
2.2230865301381972       0.0031686392376710504
2.2230865301381972       0.0031652750595470396
2.2266265301381973       0.0030994423222542415
2.2266265301381973       0.003099991538838779
2.2283965301381974       0.003104890837802698
2.2301665301381974       0.0030788006141488702
2.2301665301381974       0.0030730560567518266
2.2310515301381972       0.0028940065080378455
2.2312727801381973       0.0028872366744543687
2.2317152801381974       0.0027795922948334675
2.2326002801381972       0.0026389834692228456
2.2326002801381972       0.002638949025705363
2.2338534401381973       0.0030293557331403063
2.2351066001381974       0.0030486856989098317
2.2351066001381974       0.003076255044735625
2.2368810746981973       0.0028332258120750305
2.237324693338197        0.002730035264610943
2.237324693338197        0.00271896299475086
2.237952857332437        0.002738338447720763
2.238581021326677        0.0027301972319675703
2.239837349315157        0.002741854651133399
2.239837349315157        0.0027369350908577547
2.2416163097468447       0.0028575450279192706
2.2416163097468447       0.0028518230982457066
2.24517423061022         0.002752996985050469
2.24517423061022         0.002711654423191278
2.2469531910419076       0.002747706381616387
2.2469531910419076       0.002734212613853936
2.2478426712577515       0.0026807215681482442
2.2489100475167643       0.0026844490141988454
2.2489100475167643       0.0026780446885565565
2.250169551502399        0.002723691673832407
2.250169551502399        0.002681021417657182
2.2526885594736688       0.0027891383773417065
2.2526885594736688       0.002785674256890712
2.2539480634593034       0.002778771864675629
2.2539480634593034       0.0027784019273418246
2.2564670714305732       0.002782939480130628
2.2564670714305732       0.0027800698450841134
2.257726575416208        0.002763704194874532
2.257726575416208        0.002764796650767641
2.2602455833874777       0.0027661414082331796
2.2602455833874777       0.002765252574961005
2.2615050873731124       0.002732429819547657
2.2615050873731124       0.0027298367528739466
2.264024095344382        0.0026969722115200052
2.264024095344382        0.0026967153416283286
2.265283599330017        0.0026319812171543035
2.265283599330017        0.002631983588448003
2.2678026073012867       0.002588870345191733
2.2678026073012867       0.002588405981651491
2.2690621112869214       0.0025272067560194213
2.2690621112869214       0.0025276074187190536
2.271581119258191        0.002523386291692579
2.271581119258191        0.0025231301028446652
2.272840623243826        0.002486599493492503
2.272840623243826        0.002486456747125259
2.273470375236643        0.0024539296194807034
2.2741001272294605       0.0024424785457326237
2.2741001272294605       0.002443454098595508
2.275359631215095        0.0024571463231809823
2.275359631215095        0.00245776280502312
2.2759893832079126       0.0024304284717570866
2.27661913520073         0.002414354392657643
2.27661913520073         0.002413677438100996
2.2778786391863646       0.00241550750393945
2.2778786391863646       0.0024148278431773175
2.278508391179182        0.002395271438284264
2.2791381431719993       0.002379901862736237
2.2791381431719993       0.0023807607693613134
2.280397647157634        0.002381232449914436
2.280397647157634        0.002381148286122181
2.2810273991504513       0.0023759623796570754
2.2816571511432686       0.0023644019028672483
2.2816571511432686       0.0023641958781894616
2.2829166551289033       0.0023710985420991038
2.2829166551289033       0.0023710204628550786
2.2835464071217206       0.0024861800033610694
2.284176159114538        0.0024607060728474607
2.284176159114538        0.0024613996408629803
2.2854356631001727       0.002323944133538966
2.2854356631001727       0.0023281066090408316
2.28606541509299         0.002288102087871606
2.2866951670858073       0.002258646505937101
2.2866951670858073       0.0022600326147542357
2.287954671071442        0.002286045136033147
2.287954671071442        0.002285847170969968
2.2885844230642594       0.0022457878775033677
2.2885844230642594       0.002236249825169744
2.289843927049894        0.002274446104867482
2.289843927049894        0.002274274987188428
2.2904736790427114       0.002227877124718388
2.2904736790427114       0.0022293431841224724
2.291733183028346        0.002274004354449119
2.291733183028346        0.0022669625357276714
2.2923629350211634       0.002240955077082666
2.2923629350211634       0.002240715617489019
2.293622439006798        0.0022182734846108373
2.293622439006798        0.002218106829357004
2.2942521909996154       0.0022196763615725708
2.2942521909996154       0.0022160921943899063
2.29551169498525         0.002189702890426082
2.29551169498525         0.002173389260152602
2.2961414469780674       0.0022130489260438133
2.2961414469780674       0.0022111477788072133
2.297400950963702        0.0021188488134845154
2.297400950963702        0.0021141741240941585
2.2980307029565195       0.0021141080484106053
2.298188140954724        0.002086809882323633
2.298188140954724        0.002083420993232842
2.2984110731601812       0.002074735319303623
2.2986340053656384       0.002065007210088742
2.2990798697765533       0.0020117353586126575
2.2990798697765533       0.002018279856449111
2.2997112137824085       0.0020336135099084836
2.2997112137824085       0.0020254892734330836
2.300973901794119        0.002041435214170627
2.300973901794119        0.002040563759625816
2.301605245799974        0.002057857951166895
2.301605245799974        0.002056068541870376
2.3019209178029016       0.002021814976911531
2.3022365898058292       0.0019855355344326926
2.3022365898058292       0.001984887206834488
2.3028679338116844       0.0019871568624095157
2.3028679338116844       0.0019871648094015384
2.303183605814612        0.0019692603892302457
2.3035624122181253       0.001945982574647672
2.3035624122181253       0.0019446489691911373
2.3040094037742707       0.0019268910859877343
2.3040094037742707       0.0019276892851971539
2.304903386886562        0.0019284096361951893
2.304903386886562        0.0019243414999324353
2.305350378442707        0.00206411368089323
2.3057973699988525       0.002072114963650243
2.3057973699988525       0.002071316279210044
2.3061996623993837       0.0020826528980572717
2.306601954799915        0.0020373310797806507
2.306601954799915        0.002034783642560281
2.3074065396009766       0.002013864917665628
2.3074065396009766       0.002013692210487642
2.3078088320015078       0.0019660052529416917
2.3078088320015078       0.0019656821102173073
2.3086134168025696       0.0019072307826445076
2.3086134168025696       0.0019057090848888583
2.3090157092031007       0.0019139286366598451
2.3090157092031007       0.0019131715641288773
2.309216855403366        0.0019502545084439625
2.3094180016036314       0.0019848652714630002
2.3096191478038968       0.00200548170427306
2.3096191478038968       0.002005468811127741
2.3104237326049586       0.002139325694793578
2.3104237326049586       0.0021391716311163975
2.3108260250054897       0.002087141645249358
2.3108260250054897       0.0020869526081465466
2.3116306098065516       0.002044066457174056
2.3116306098065516       0.002042872562983949
2.3120329022070827       0.0019074569725515897
2.3120329022070827       0.0019059641961291507
2.312234048407348        0.0019254377332453276
2.3124351946076134       0.0019418990350327132
2.3126363408078787       0.0019457793613130575
2.3126363408078787       0.0019440068244431716
2.3134409256089405       0.0019779069667931297
2.3134409256089405       0.0019788270947136005
2.3135414987090734       0.001939246057198335
2.3136420718092063       0.0019130829800265842
2.3138432180094717       0.0018696239056825888
2.3138432180094717       0.0018699927090575809
2.3146478028105335       0.001941789760234302
2.3146478028105335       0.0019424148794428692
2.3150500952110646       0.0019347497980490465
2.3150500952110646       0.001934882626291809
2.3158546800121265       0.0019452705568101872
2.3158546800121265       0.0019449964138332047
2.3162569724126576       0.0019196619095080726
2.3162569724126576       0.0019200982907573508
2.3170615572137194       0.0019492284648674717
2.3170615572137194       0.0019481792564476734
2.3174638496142506       0.0019494237890305653
2.3174638496142506       0.0019497197202176728
2.3182684344153124       0.001973464429478114
2.3182684344153124       0.0019627532471429288
2.3186707268158435       0.001923466275548149
2.3186707268158435       0.0019197235156401607
2.3194753116169053       0.0019309441254638203
2.3194753116169053       0.0019203241000262036
2.3198776040174365       0.0016770562379989085
2.3198776040174365       0.0016064192753344197
2.320078750217702        0.0016494738754634433
2.320279896417967        0.0017207563895453755
2.320279896417967        0.0017168013689379188
2.321004022738923        0.0018693771975178408
2.321004022738923        0.001872898283037782
2.3210945385290427       0.0018296672127165667
2.3211850543191623       0.0018011727789726123
2.321275570109282        0.001786133014995868
2.321456601689521        0.001791988551343767
2.321456601689521        0.001794697676193134
2.3221807280104767       0.0017442538204864681
2.3221807280104767       0.001743447862911484
2.3225427911709544       0.001685672409791443
2.3225427911709544       0.001681532968921505
2.3227238227511933       0.0016441114720575772
2.322769080646253        0.001632319626837693
2.3228595964363725       0.001621695827398132
2.3230406280166114       0.0016497606933258725
2.3230406280166114       0.00164015318756313
2.3237647543375672       0.0016025443482221673
2.3237647543375672       0.0016001686301819057
2.324126817498045        0.0016989343587089575
2.324126817498045        0.0017031080794763925
2.324850943819001        0.0018246930224112556
2.324850943819001        0.001839862846096229
2.3252130069794785       0.0018919429896112686
2.3252130069794785       0.0018704276911153325
2.3259371333004344       0.001823553291031236
2.3259371333004344       0.0017982742940188257
2.326299196460912        0.001703189267978928
2.326299196460912        0.0016995097059965651
2.326480228041151        0.0016471168121701997
2.32666125962139         0.001619985532057451
2.32666125962139         0.0016216940333341028
2.3270233227818675       0.0016363715119494145
2.3270233227818675       0.0016348562920276595
2.3272043543621064       0.0016022634134475917
2.327421592258393        0.001574108311900961
2.327421592258393        0.0015679855918677293
2.3274404973863176       0.0015636311192241542
2.3274631835398267       0.0015620074241763822
2.3274899532009674       0.0015540122568378709
2.3275215414011137       0.0015441393432027994
2.3275588154772864       0.0015406600819408908
2.32760279888717         0.001547363210601966
2.3276546993108327       0.001541185120334295
2.3277159418107547       0.001544378429837838
2.3277882079606624       0.0015577561453465442
2.3278039258482672       0.0015526257602926918
2.327819643735872        0.0015488246949500045
2.327835361623477        0.0015463472693381247
2.3278510795110816       0.0015451940735778866
2.3278667973986864       0.0015453276869434839
2.3278667973986864       0.0016101858006192273
2.327882515286291        0.0016124946329762989
2.327898233173896        0.0016127986099054303
2.327929668949106        0.0016125011404331986
2.327992540499526        0.001614755500101324
2.3281182836003658       0.0016031232842861863
2.3281182836003658       0.0014536398950724776
2.328149719375576        0.0014015035630214091
2.328212590925996        0.0013120917968807017
2.328275462476416        0.0012420240881176083
2.3284012055772556       0.0011932008662568147
2.3284012055772556       0.0012435804110700645
2.3284326413524656       0.0012308847015776898
2.32846023299105         0.0012337810175052331
2.328484117567871        0.001244442798978545
2.3285318867215126       0.0012910492899684267
2.3285422765124295       0.0013023465033758057
2.3285526663033465       0.0013147376329699853
2.3285630560942634       0.001328167121594434
2.3285734458851803       0.0013425919980860658
2.3285838356760973       0.001357943974115896
2.3285942254670142       0.0013741765107115958
2.328604615257931        0.0013912232432041968
2.328615005048848        0.0014090269227612882
2.328625394839765        0.0014275478565925828
2.328635784630682        0.0014467179684026117
2.328646174421599        0.0014664780764576425
2.328666954003433        0.0015079172954336056
2.328666954003433        0.0014690515701570352