% Model:              2D_2018_fixed_bottom_liquid__voltage_sweeps__2_wd_0p8mps.mph
% Version:            COMSOL 5.4.0.388
% Date:               Jun 25 2021, 16:20
% Table:              Probe Table 5 - 
% Time (s)               Spatial coordinate x (mm), x_center_of_mass
0                        27.00000038481005
2.34375E-5               27.00000023368457
4.6875E-5                26.99999992640373
9.375E-5                 26.999998670954326
1.875E-4                 26.999993540617293
2.8125000000000003E-4    26.99998578013622
4.6875000000000004E-4    26.999960043457065
6.5625E-4                26.99992453119679
0.00103125               26.9998188151797
0.00140625               26.9996828914555
0.00215625               26.999324802755552
0.00290625               26.998912090750203
0.0036562499999999998    26.998473296525667
0.005156249999999999     26.99760821727116
0.005156249999999999     26.997610048541183
0.006656249999999999     26.99693056575637
0.006656249999999999     26.996931952871943
0.00752240406505196      26.996608356734278
0.00752240406505196      26.996607945267183
0.007955481097577941     26.99646207951033
0.007955481097577941     26.996459620605112
0.008388558130103922     26.996328097676223
0.008388558130103922     26.99632661147954
0.008605096646366913     26.99626381272034
0.008605096646366913     26.996263717424544
0.008821635162629904     26.99620274408374
0.008821635162629904     26.99620198661015
0.008929904420761399     26.996171542004372
0.008929904420761399     26.996169734078375
0.009038173678892893     26.996138955803243
0.009038173678892893     26.996137727179203
0.009254712195155885     26.996071052681344
0.009254712195155885     26.996070919172592
0.009385830643896935     26.99602719707281
0.009385830643896935     26.996027898403774
0.00945138986826746      26.996004934102597
0.009516949092637986     26.9959810648473
0.009516949092637986     26.995980546261872
0.009648067541379037     26.99592873579896
0.009648067541379037     26.99592753288903
0.009713626765749562     26.995900277469207
0.009779185990120088     26.99587196032443
0.009779185990120088     26.995873336366195
0.009910304438861138     26.9958122233733
0.009910304438861138     26.99581185458217
0.009975863663231664     26.995779930543844
0.01004142288760219      26.995746980270184
0.010106982111972715     26.995713021646438
0.010106982111972715     26.99571222362919
0.010238100560713765     26.99564047429493
0.010238100560713765     26.995642295492264
0.010500337458195867     26.995486516135042
0.010500337458195867     26.995487515270085
0.010631455906936918     26.99540658402539
0.010762574355677968     26.995323092016452
0.010762574355677968     26.99532180426786
0.01099858756341186      26.99516402108141
0.01099858756341186      26.99516342002196
0.011470613978879643     26.994821856023155
0.011470613978879643     26.994823469058083
0.011706627186613534     26.99464578352979
0.011942640394347425     26.9944626378521
0.011942640394347425     26.994458270236095
0.01236746416826843      26.994115052196804
0.01236746416826843      26.99411665147062
0.01321711171611044      26.993405550524106
0.01321711171611044      26.993405967305875
0.013641935490031445     26.993044010887143
0.01406675926395245      26.99267815344
0.01406675926395245      26.99267868290856
0.01483144205701026      26.992012663303083
0.01483144205701026      26.992012218051734
0.016360807643125877     26.99065330343725
0.016360807643125877     26.99065092696874
0.017125490436183687     26.98995746180031
0.017125490436183687     26.98995816021
0.018654856022299306     26.98853188253045
0.018654856022299306     26.98852717276765
0.019419538815357115     26.987800817992188
0.020184221608414925     26.98706536598788
0.020184221608414925     26.98706935519582
0.021713587194530544     26.98557993237693
0.021713587194530544     26.98557754713886
0.022478269987588353     26.98482731664388
0.023242952780646163     26.984076579454666
0.023242952780646163     26.984080276041844
0.02461938180815022      26.982732952820605
0.02461938180815022      26.98273047853748
0.027372239863158333     26.980104437334376
0.027372239863158333     26.980103809084255
0.02874866889066239      26.978802556543975
0.030125097918166446     26.977529137289107
0.030125097918166446     26.9775318579219
0.0315015269456705       26.976288643709985
0.032877955973174555     26.97508666919523
0.032877955973174555     26.975085411033977
0.03563081402818267      26.972875910932796
0.03563081402818267      26.972876422504346
0.041136530138198894     26.96929097536535
0.041136530138198894     26.96929187650767
0.051136530138198896     26.965103468645786
0.051136530138198896     26.965105304845295
0.056136530138198894     26.963491135547255
0.056136530138198894     26.96349184149208
0.0661365301381989       26.961835696488432
0.0661365301381989       26.96183402061604
0.07613653013819889      26.961390601927707
0.07613653013819889      26.96139055586315
0.08613653013819889      26.961882350756287
0.09613653013819888      26.963039181699
0.09613653013819888      26.96304464497479
0.10613653013819888      26.964678449878267
0.11613653013819887      26.96664668946877
0.12613653013819887      26.968778014704483
0.13613653013819887      26.971089728923708
0.14613653013819888      26.973447102145293
0.1561365301381989       26.975806508050876
0.1661365301381989       26.978161317003508
0.1661365301381989       26.978172093074058
0.1761365301381989       26.98053393714837
0.18613653013819892      26.982901976310924
0.19613653013819893      26.98524776812891
0.20613653013819894      26.98748993776358
0.21613653013819895      26.98962983748765
0.22613653013819895      26.99166307782007
0.23613653013819896      26.993589432034238
0.24613653013819897      26.99545364315824
0.256136530138199        26.99721302829968
0.266136530138199        26.998878001578497
0.276136530138199        27.000443591318483
0.286136530138199        27.001915100558698
0.296136530138199        27.003295117051653
0.306136530138199        27.00458842269061
0.31613653013819903      27.005798999902602
0.32613653013819904      27.00693143598086
0.33613653013819905      27.007989770663542
0.34613653013819906      27.008978520694633
0.35613653013819907      27.00990132517722
0.3661365301381991       27.01076292429348
0.3761365301381991       27.01156576974692
0.3861365301381991       27.012315981600054
0.3961365301381991       27.013012800073653
0.4061365301381991       27.013668958641098
0.4161365301381991       27.014285666541117
0.42613653013819913      27.014834106108495
0.43613653013819914      27.015344638310722
0.44613653013819915      27.01581878698817
0.45613653013819916      27.016262119717556
0.46613653013819917      27.016678577731554
0.4761365301381992       27.017061847455793
0.4861365301381992       27.01742005010651
0.4961365301381992       27.017754684343828
0.5061365301381991       27.018052980096336
0.5161365301381992       27.01834163535394
0.5261365301381992       27.01860653957959
0.5261365301381992       27.01862845163282
0.5361365301381992       27.018960780186493
0.5461365301381992       27.019347572595223
0.5561365301381992       27.01975014928823
0.5661365301381992       27.02014597122623
0.5761365301381992       27.020519249626577
0.5861365301381992       27.020866597358857
0.5961365301381992       27.021187147944545
0.6061365301381992       27.021481087173335
0.6161365301381992       27.02175892335447
0.6261365301381993       27.022010872388595
0.6361365301381993       27.022239104149218
0.6461365301381993       27.02244263635173
0.6561365301381993       27.022622501995723
0.6661365301381993       27.022779293791146
0.6761365301381993       27.022913936382448
0.6861365301381993       27.02302727368673
0.6961365301381993       27.023120195974244
0.7061365301381993       27.02319357105717
0.7161365301381993       27.02324826163914
0.7261365301381993       27.023285113096094
0.7361365301381994       27.023304958978535
0.7461365301381994       27.023308620245626
0.7561365301381994       27.023296903631923
0.7661365301381994       27.02327059798502
0.7761365301381994       27.023230473788427
0.7861365301381994       27.023177285411933
0.7961365301381994       27.023111772525706
0.8061365301381994       27.023034658075062
0.8161365301381994       27.022946645104252
0.8261365301381994       27.022848416206017
0.8361365301381994       27.022740635661883
0.8461365301381994       27.022623950476905
0.8561365301381995       27.02249898805042
0.8661365301381995       27.022366352953703
0.8761365301381995       27.02222662652153
0.8861365301381995       27.02208036889235
0.8961365301381995       27.02192811954786
0.9061365301381995       27.021770394433407
0.9161365301381995       27.02160768250296
0.9261365301381995       27.021440445246444
0.9361365301381995       27.021269118448394
0.9461365301381995       27.021094112035303
0.9561365301381995       27.020915816973655
0.9661365301381996       27.020734762233126
0.9761365301381996       27.02055196269359
0.9861365301381996       27.020369454467126
0.9961365301381996       27.020190897271203
1.0061365301381995       27.02002201453253
1.0161365301381995       27.019870649393358
1.0261365301381995       27.019746275135443
1.0361365301381995       27.019658919004332
1.0461365301381995       27.019617598120245
1.0561365301381995       27.0196285130632
1.0661365301381995       27.0196934135334
1.0761365301381995       27.019808501970786
1.0861365301381996       27.019964177782622
1.0961365301381996       27.020145721978995
1.1061365301381996       27.020334798367596
1.1161365301381996       27.02051150842149
1.1261365301381996       27.020656665533494
1.1361365301381996       27.020753956081496
1.1461365301381996       27.0207916920253
1.1561365301381996       27.020763913194386
1.1661365301381996       27.02067067339291
1.1761365301381996       27.020517451587633
1.1861365301381996       27.02031380008202
1.1961365301381996       27.020071504626074
1.2061365301381997       27.019802687145255
1.2161365301381997       27.019518119449305
1.2261365301381997       27.019225932445384
1.2361365301381997       27.018930761098556
1.2461365301381997       27.018633334881123
1.2561365301381997       27.01833042831143
1.2661365301381997       27.018015231577856
1.2761365301381997       27.01767803345067
1.2861365301381997       27.017307192800665
1.2961365301381997       27.01689029662238
1.3061365301381997       27.016415419743225
1.3161365301381998       27.01587245675549
1.3261365301381998       27.015254098637666
1.3361365301381998       27.014556721912978
1.3461365301381998       27.013780680078156
1.3561365301381998       27.012930311307056
1.3661365301381998       27.012013465630826
1.3761365301381998       27.011040695603267
1.3861365301381998       27.01002410487192
1.3961365301381998       27.008976016284496
1.4061365301381998       27.007907666694276
1.4161365301381998       27.006827817128094
1.4261365301381999       27.0057416308943
1.4361365301381999       27.00465022227479
1.4461365301381999       27.003550273562155
1.4561365301381999       27.002434319726614
1.4661365301382          27.001291301978725
1.4761365301382          27.000107544286923
1.4861365301382          26.99886780503479
1.4961365301382          26.997556789181182
1.5061365301382          26.996160573539534
1.5161365301382          26.99466780580549
1.5261365301382          26.993070754978156
1.5361365301382          26.991365918150947
1.5461365301382          26.989554932223278
1.5561365301382          26.987644555819536
1.5661365301382          26.98564526862417
1.5761365301382          26.983573439326868
1.5761365301382          26.983560876132547
1.5861365301382          26.981544531121312
1.5961365301382          26.979663908367364
1.6061365301382          26.97786342564534
1.6161365301382          26.976173249493872
1.6261365301382          26.97450826238461
1.6361365301382          26.972831286906292
1.6461365301382          26.971098534260477
1.6561365301382          26.969263555516633
1.6661365301382          26.967358726834927
1.6761365301382          26.96529967672897
1.6861365301382          26.963088211470364
1.6961365301382          26.960685572672737
1.7061365301382          26.958081461386293
1.7161365301382001       26.955282113672197
1.7161365301382001       26.95526735998938
1.7261365301382001       26.951695377904684
1.7361365301382001       26.947479020295482
1.7461365301382001       26.942898977892956
1.7561365301382001       26.93782715937407
1.7661365301382002       26.93262892473745
1.7761365301382002       26.92746519671453
1.7761365301382002       26.92745439345074
1.7861365301382002       26.92265281038377
1.7886365301382001       26.9214777468182
1.7936365301382          26.91924757275777
1.8036365301382          26.91531953152088
1.8136365301382          26.911913285783083
1.8236365301382          26.90897167979094
1.8336365301382          26.906366988904832
1.8436365301382          26.903922089458707
1.8536365301382          26.901448582881876
1.8636365301382          26.898775450907277
1.8636365301382          26.898761956564165
1.8736365301382          26.895292080307996
1.8836365301382          26.89076955211838
1.8936365301382          26.88553031182419
1.9036365301382001       26.87905295310285
1.9136365301382001       26.87195777360941
1.9136365301382001       26.871949319603303
1.9236365301382001       26.86365442330802
1.9336365301382001       26.854329006526303
1.9436365301382001       26.844448484531505
1.9436365301382001       26.844429667044874
1.9536365301382002       26.83324515668434
1.9636365301382002       26.821207801819074
1.9636365301382002       26.821196235105532
1.9736365301382002       26.809944478310417
1.9836365301382002       26.800269987886818
1.9836365301382002       26.800262449367153
1.9936365301382002       26.79090284434225
2.0036365301382          26.781438405557303
2.0036365301382          26.781427428042466
2.0136365301382          26.772629191825555
2.0236365301381998       26.76452875147453
2.0236365301381998       26.764518269122334
2.0336365301381996       26.756206695108112
2.0436365301381993       26.747191591585
2.0436365301381993       26.74718812434755
2.053636530138199        26.73797978498173
2.063636530138199        26.728536905891364
2.063636530138199        26.72852615420291
2.0736365301381987       26.717854957592163
2.0736365301381987       26.71784642065034
2.0836365301381985       26.70635312313389
2.0836365301381985       26.70635572556965
2.0936365301381983       26.692229515588956
2.0936365301381983       26.692221735605404
2.103636530138198        26.674916464514983
2.103636530138198        26.674907819353255
2.108636530138198        26.665330761833303
2.113636530138198        26.65498851500376
2.113636530138198        26.654988448026355
2.1236365301381976       26.631168933043412
2.1236365301381976       26.63115612927149
2.1286365301381975       26.61869999575586
2.1286365301381975       26.618697965969954
2.1386365301381973       26.593906291249606
2.1386365301381973       26.593900800079187
2.143636530138197        26.58165841127078
2.143636530138197        26.581656794676803
2.153636530138197        26.558790897673177
2.153636530138197        26.558783835268414
2.154886530138197        26.555946789742848
2.1561365301381974       26.553135566479078
2.1586365301381973       26.547571443239175
2.1586365301381973       26.54756702893655
2.168636530138197        26.52628874595212
2.168636530138197        26.526283433335983
2.173636530138197        26.51571563710318
2.173636530138197        26.515716991398776
2.183636530138197        26.493745984530907
2.183636530138197        26.493744153122446
2.184886530138197        26.490980108062516
2.187386530138197        26.48539191798561
2.189886530138197        26.479721697550787
2.189886530138197        26.479716678132803
2.192386530138197        26.47389328448558
2.194886530138197        26.467861904702147
2.194886530138197        26.467863357709863
2.1998865301381967       26.454973659086196
2.1998865301381967       26.454967579686286
2.2023865301381966       26.44829544314958
2.2053865301381967       26.43996364821669
2.2053865301381967       26.4399604428134
2.208926530138197        26.429663368836575
2.208926530138197        26.429664449057224
2.216006530138197        26.407281021274443
2.216006530138197        26.407273907159016
2.219546530138197        26.395574202096288
2.219546530138197        26.39557488490322
2.221316530138197        26.38956575843264
2.2230865301381972       26.383382825117273
2.2230865301381972       26.383379115920093
2.2266265301381973       26.370268619975768
2.2266265301381973       26.370264916138535
2.2283965301381974       26.36351409718043
2.2301665301381974       26.356553737413723
2.2301665301381974       26.356565805797267
2.2310515301381972       26.353020915801356
2.2312727801381973       26.352130507894373
2.2317152801381974       26.35033349203405
2.2326002801381972       26.346668006623837
2.2326002801381972       26.34665506129437
2.2338534401381973       26.341317124691546
2.2351066001381974       26.335841473219638
2.2351066001381974       26.33584797070811
2.2368810746981973       26.32780367201703
2.237324693338197        26.32577405927511
2.237324693338197        26.325766610689076
2.237952857332437        26.322853035290198
2.238581021326677        26.319902884968084
2.239837349315157        26.31391731521787
2.239837349315157        26.313912496910046
2.2416163097468447       26.305058204917867
2.2416163097468447       26.305066806922955
2.24517423061022         26.286368660218155
2.24517423061022         26.286366273856476
2.2469531910419076       26.276759811579392
2.2469531910419076       26.276754221646897
2.2478426712577515       26.271882831358987
2.2489100475167643       26.265938489902503
2.2489100475167643       26.26593932762565
2.250169551502399        26.25878208731362
2.250169551502399        26.258776058647193
2.2526885594736688       26.244026863965512
2.2526885594736688       26.244022890457227
2.2539480634593034       26.236540124618188
2.2539480634593034       26.236541106373696
2.2564670714305732       26.221259475948205
2.2564670714305732       26.22125784176918
2.257726575416208        26.213543230194574
2.257726575416208        26.21354513242408
2.2602455833874777       26.19787030156174
2.2602455833874777       26.19786622693136
2.2615050873731124       26.189957762249055
2.2615050873731124       26.189958054310875
2.264024095344382        26.173735508171518
2.264024095344382        26.17373546276421
2.265283599330017        26.165501851428427
2.265283599330017        26.165500307383244
2.2678026073012867       26.148523719691028
2.2678026073012867       26.148520947765352
2.2690621112869214       26.139889755070655
2.2690621112869214       26.139890615149447
2.271581119258191        26.122086730712557
2.271581119258191        26.122079230624166
2.272840623243826        26.113037279944194
2.272840623243826        26.11303474608444
2.273470375236643        26.108475565671522
2.2741001272294605       26.103879502687565
2.2741001272294605       26.10387659568483
2.275359631215095        26.09452833885148
2.275359631215095        26.09452657736683
2.2759893832079126       26.089812291520474
2.27661913520073         26.085059140957974
2.27661913520073         26.0850582247197
2.2778786391863646       26.075399116131532
2.2778786391863646       26.075397034433575
2.278508391179182        26.07052770741325
2.2791381431719993       26.0656202604497
2.2791381431719993       26.065616342037757
2.280397647157634        26.05564798565978
2.280397647157634        26.055644044280612
2.2810273991504513       26.050619110670144
2.2816571511432686       26.045555689115698
2.2816571511432686       26.045553600953156
2.2829166551289033       26.035264544795247
2.2829166551289033       26.035263242956244
2.2835464071217206       26.03007673971606
2.284176159114538        26.024850608489597
2.284176159114538        26.02484771876737
2.2854356631001727       26.014222088877776
2.2854356631001727       26.014222627614842
2.28606541509299         26.00886512664999
2.2866951670858073       26.00346470137181
2.2866951670858073       26.00346148713782
2.287954671071442        25.992500603687915
2.287954671071442        25.992495575651173
2.2885844230642594       25.9869734766871
2.2885844230642594       25.986969642958826
2.289843927049894        25.97576388260883
2.289843927049894        25.97576047646743
2.2904736790427114       25.97011220203613
2.2904736790427114       25.970112193467234
2.291733183028346        25.95863033118867
2.291733183028346        25.95862801453998
2.2923629350211634       25.95283783229784
2.2923629350211634       25.95283542145303
2.293622439006798        25.941061576141752
2.293622439006798        25.941058285523415
2.2942521909996154       25.935117412400608
2.2942521909996154       25.93511757457577
2.29551169498525         25.922989989405274
2.29551169498525         25.922985919462008
2.2961414469780674       25.916853942998312
2.2961414469780674       25.916851549060826
2.297400950963702        25.90431300791933
2.297400950963702        25.90430980626588
2.2980307029565195       25.89796903827151
2.298188140954724        25.89637917798193
2.298188140954724        25.896376060366283
2.2984110731601812       25.894115702691835
2.2986340053656384       25.89184644889834
2.2990798697765533       25.887287038387427
2.2990798697765533       25.8872831878803
2.2997112137824085       25.880729866159395
2.2997112137824085       25.880728330761706
2.300973901794119        25.867323368056443
2.300973901794119        25.867320254551377
2.301605245799974        25.86054173134098
2.301605245799974        25.860537152754763
2.3019209178029016       25.857127865497166
2.3022365898058292       25.853700070350207
2.3022365898058292       25.853699031775903
2.3028679338116844       25.84676760554655
2.3028679338116844       25.846760911550213
2.303183605814612        25.843274846319858
2.3035624122181253       25.839064397111613
2.3035624122181253       25.839060219988642
2.3040094037742707       25.834053524539254
2.3040094037742707       25.834052363506004
2.304903386886562        25.823890996955583
2.304903386886562        25.823889854636175
2.305350378442707        25.81877110564178
2.3057973699988525       25.813617922332764
2.3057973699988525       25.813613922941293
2.3061996623993837       25.808947477093145
2.306601954799915        25.804254167202892
2.306601954799915        25.80424982986282
2.3074065396009766       25.79475646706818
2.3074065396009766       25.79475478957338
2.3078088320015078       25.789979858228836
2.3078088320015078       25.789975708215824
2.3086134168025696       25.78031806567829
2.3086134168025696       25.780315677627907
2.3090157092031007       25.775458473776318
2.3090157092031007       25.77545501452512
2.309216855403366        25.773019034494805
2.3094180016036314       25.770576616882746
2.3096191478038968       25.768127770141124
2.3096191478038968       25.7681294961299
2.3104237326049586       25.75822862013402
2.3104237326049586       25.75822407648123
2.3108260250054897       25.753244655759538
2.3108260250054897       25.75324366135882
2.3116306098065516       25.74317548859357
2.3116306098065516       25.743170070209025
2.3120329022070827       25.738105718502375
2.3120329022070827       25.738104560436614
2.312234048407348        25.735564188494624
2.3124351946076134       25.733016534422458
2.3126363408078787       25.730461563001782
2.3126363408078787       25.730455799167885
2.3134409256089405       25.720119489808976
2.3134409256089405       25.720118143434682
2.3135414987090734       25.718823691849742
2.3136420718092063       25.717527406086894
2.3138432180094717       25.714930544033802
2.3138432180094717       25.714925479993106
2.3146478028105335       25.704413050891564
2.3146478028105335       25.704410797947716
2.3150500952110646       25.699124875795217
2.3150500952110646       25.69912055988176
2.3158546800121265       25.688441473315752
2.3158546800121265       25.688434665285477
2.3162569724126576       25.68306704035549
2.3162569724126576       25.683065572680622
2.3170615572137194       25.6722242189927
2.3170615572137194       25.67222099022057
2.3174638496142506       25.666771854620198
2.3174638496142506       25.66675466741115
2.3182684344153124       25.655745494713432
2.3182684344153124       25.655745568503377
2.3186707268158435       25.65021089950678
2.3186707268158435       25.650202916532063
2.3194753116169053       25.639019049705468
2.3194753116169053       25.639037778161228
2.3198776040174365       25.633413574844823
2.3198776040174365       25.63340220798928
2.320078750217702        25.630581368609327
2.320279896417967        25.627752994510907
2.320279896417967        25.62774988914349
2.321004022738923        25.617473472981423
2.321004022738923        25.61747014497579
2.3210945385290427       25.616183547110335
2.3211850543191623       25.614895448155384
2.321275570109282        25.613605841473404
2.321456601689521        25.611020735261526
2.321456601689521        25.611003139921408
2.3221807280104767       25.60056677225477
2.3221807280104767       25.60056671034746
2.3225427911709544       25.59532269221398
2.3225427911709544       25.595320838987497
2.3227238227511933       25.592691910737052
2.322769080646253        25.592034241482004
2.3228595964363725       25.59071738602423
2.3230406280166114       25.588077613479484
2.3230406280166114       25.588084811902252
2.3237647543375672       25.577424162575852
2.3237647543375672       25.577405073558857
2.324126817498045        25.57204700514424
2.324126817498045        25.5720448871246
2.324850943819001        25.561220437568497
2.324850943819001        25.561217265615497
2.3252130069794785       25.55577567767655
2.3252130069794785       25.555771139455082
2.3259371333004344       25.544763588538718
2.3259371333004344       25.54476936363513
2.326299196460912        25.53923053264306
2.326299196460912        25.539228812454574
2.326480228041151        25.536449994112985
2.32666125962139         25.533662155347916
2.32666125962139         25.53366041847992
2.3270233227818675       25.528045259563424
2.3270233227818675       25.528037564040574
2.3272043543621064       25.525218993922483
2.327421592258393        25.521821538330602
2.327421592258393        25.521819491008653
2.3274404973863176       25.521523645689516
2.3274631835398267       25.521168463746793
2.3274899532009674       25.520749114530076
2.3275215414011137       25.520253954950633
2.3275588154772864       25.51966920971137
2.32760279888717         25.51897855334256
2.3276546993108327       25.51816266605509
2.3277159418107547       25.517198637071516
2.3277882079606624       25.51605928450367
2.3278039258482672       25.51581136757155
2.327819643735872        25.51556336335048
2.327835361623477        25.515315271675313
2.3278510795110816       25.51506709222997
2.3278667973986864       25.514818824724983
2.3278667973986864       25.514831575655904
2.327882515286291        25.514583168536735
2.327898233173896        25.51433467577092
2.327929668949106        25.513837493633115
2.327992540499526        25.512841446592425
2.3281182836003658       25.510843400215208
2.3281182836003658       25.510841180974353
2.328149719375576        25.510341116491
2.328212590925996        25.50933946230056
2.328275462476416        25.5083362179806
2.3284012055772556       25.506323231198095
2.3284012055772556       25.50630890975371
2.3284326413524656       25.505805061846758
2.32846023299105         25.5053624809231
2.328484117567871        25.50497910506164
2.3285318867215126       25.504211360145508
2.3285422765124295       25.504044320435753
2.3285526663033465       25.50387723301729
2.3285630560942634       25.503710098035214
2.3285734458851803       25.503542915591176
2.3285838356760973       25.503375685769203
2.3285942254670142       25.50320840864452
2.328604615257931        25.503041084294082
2.328615005048848        25.5028737127865
2.328625394839765        25.502706294182463
2.328635784630682        25.502538828541738
2.328646174421599        25.502371315919262
2.328666954003433        25.50203610875897
2.328666954003433        25.502035431166075
2.3286963778913097       25.501560311402187
2.3287258017791865       25.50108481685406
2.328761110444639        25.50051387865954
2.3288027746698727       25.499839194868493
2.3288519384556485       25.499042015454393
2.328909951722864        25.49809986609776
2.3289784073781785       25.496986028460395
2.3290591850514493       25.495668696768714
2.329154502705909        25.49410994339682
2.329154502705909        25.49410841469177
2.329162797724788        25.493972683587426
2.329179387762547        25.493701094354407
2.3291959778003055       25.49342937259993
2.329215885845616        25.493103115535522
2.3292393773390825       25.49271786455445
2.329267097301373        25.492262895812264
2.3292998068568753       25.491725514076954
2.3293384041323684       25.491090598018314
2.32938394891745         25.49034030540115
2.329437691763846        25.48945340536312
2.329501108322594        25.488404624519767
2.329501108322594        25.48840819631953
2.3295231836266943       25.48804273704694
2.3295452589307946       25.487676994512068
2.329567334234895        25.487310966652778
2.329611484843095        25.48657776768239
2.3296210876003784       25.486418234890486
2.329630690357662        25.48625864668159
2.3296402931149456       25.486099002870734
2.329649895872229        25.48593930321613
2.3296594986295127       25.485779547471527
2.3296691013867963       25.485619735385217
2.32967870414408         25.485459866712493
2.3296883069013634       25.485299941186494
2.329697909658647        25.485139958558158
2.3297075124159305       25.484979918557823
2.329717115173214        25.484819839158
2.3297363206877812       25.48449951726317
2.3297747317169155       25.48385819070413