% Model:              2D_2018_fixed_bottom_liquid__voltage_sweeps__2_wd_2mps.mph
% Version:            COMSOL 5.4.0.388
% Date:               Jun 24 2021, 15:10
% Table:              Probe Table 6 - 
% Time (s)               y-fluid_thickness (mm), droplet_gap
0                        0.10000000216352006
2.34375E-5               0.09999999841677149
4.19787453776274E-5      0.09999998505102982
7.90612361328822E-5      0.09999986046104825
1.5322621764339182E-4    0.09999880339004764
2.2739119915390142E-4    0.09999653334102648
3.757211621749206E-4     0.09998410262234422
5.240511251959398E-4     0.09996088044490889
6.72381088216959E-4      0.09992410359880916
9.690410142589974E-4     0.09977586324532708
0.0012657009403010358    0.09953396851922766
0.0018590207923851127    0.09854497192428313
0.0023930086592607817    0.0971663853823715
0.0029269965261364507    0.09522810781337816
0.0034609843930121197    0.0926717679418012
0.004528960126763458     0.08597067778462822
0.005596935860514796     0.07656566638531348
0.006344037416617502     0.06815748628527908
0.006344037416617502     0.0680917446529458
0.007016428817109939     0.0585492614419
0.007688820217602374     0.04770667447208604
0.007688820217602374     0.04770281481674418
0.008357314366113984     0.035663472849261926
0.008357314366113984     0.03566524097274809
0.009122204491826302     0.020787558831876583
0.009122204491826302     0.020776901884091408
0.009590368324119693     0.011890254518158797
0.009590368324119693     0.01189309768754752
0.009824450240266389     0.007868212473537313
0.009824450240266389     0.007867935989810775
0.009941491198339735     0.006075784552839279
0.009941491198339735     0.006075324877275173
0.010058532156413082     0.004653954651421578
0.010058532156413082     0.004652986332060252
0.010117052635449757     0.004031648692542217
0.010175573114486431     0.0035233932762371648
0.010175573114486431     0.003521504267132644
0.010234093593523105     0.003132392748902285
0.01029261407255978      0.0028455727821884505
0.01029261407255978      0.0028454617729844513
0.010397950934825793     0.002647635232630105
0.010503287797091806     0.0026260492927893987
0.010503287797091806     0.0026247609276491314
0.010662382945496849     0.002828539451470765
0.010662382945496849     0.0028283250726986522
0.010980573242306934     0.0035843475147631122
0.010980573242306934     0.0035834949171881063
0.011139668390711977     0.003863598729718365
0.01129876353911702      0.004149323952101422
0.01129876353911702      0.004149318808819788
0.011585134806246096     0.004742010951367705
0.011585134806246096     0.0047435863650777815
0.01215787734050425      0.005928722215362697
0.01215787734050425      0.005926461797750929
0.013303362409020558     0.007574357572977513
0.013303362409020558     0.007574029074899381
0.013876104943278712     0.008117025009669442
0.014448847477536867     0.008634022339984015
0.014448847477536867     0.00862973532722057
0.01514726008647663      0.009214547560991784
0.015845672695416393     0.009707191567784063
0.015845672695416393     0.009699854501440258
0.016667503692163844     0.010138186640088614
0.017489334688911295     0.010474197111495429
0.017489334688911295     0.010472426756258021
0.01830055742819084      0.010713708287075994
0.019111780167470383     0.010888810367429974
0.019111780167470383     0.010890306063780168
0.019919955715146764     0.010984232605533266
0.020728131262823146     0.010993540323010666
0.020728131262823146     0.010993134502925665
0.021511212603244484     0.010895744630814823
0.022294293943665822     0.010686735008878616
0.022294293943665822     0.010685666064167224
0.023125087885431255     0.010343228829199844
0.023955881827196688     0.0098809938370646
0.023955881827196688     0.009881935084225107
0.02487687567921582      0.009380243044083362
0.02579786953123495      0.009053430739946067
0.02579786953123495      0.00905226667005177
0.026803043718686203     0.009063521721065348
0.027808217906137456     0.009399537164170128
0.027808217906137456     0.009400029262923802
0.02889127099265218      0.010018213468838185
0.029974324079166902     0.010702882469845049
0.029974324079166902     0.010700687908375868
0.03140520122933837      0.011475585978256743
0.03283607837950984      0.012038766567025808
0.03283607837950984      0.012036619930018769
0.034504277586748025     0.012452065697461396
0.03617247679398621      0.01267121815876765
0.03617247679398621      0.012669757247985112
0.03794055037027645      0.012799666710139324
0.03970862394656669      0.012857306169179218
0.03970862394656669      0.012856988063498966
0.04194492975642087      0.012969860298995932
0.04418123556627505      0.013107282764521916
0.04418123556627505      0.013107179511917099
0.04743120711366092      0.013469228789252195
0.04743120711366092      0.013469386400173037
0.05393115020843266      0.01419072810910629
0.05393115020843266      0.014187801498987112
0.06393115020843265      0.014998754960909334
0.06393115020843265      0.014999048425716043
0.06893115020843266      0.015267776971051965
0.06893115020843266      0.01525960499358485
0.07893115020843265      0.015811444186148924
0.07893115020843265      0.015817758262141445
0.08893115020843265      0.016251916204537264
0.08893115020843265      0.016253362753740168
0.09893115020843264      0.01655720687098773
0.09893115020843264      0.016555294447717205
0.10893115020843264      0.016872122523766547
0.10893115020843264      0.016874500707763935
0.11893115020843263      0.017109074944610374
0.11893115020843263      0.017113413794291824
0.12893115020843263      0.017293103536906735
0.13893115020843264      0.017459626144957982
0.13893115020843264      0.017461536934262976
0.14893115020843264      0.017566638864313557
0.15893115020843265      0.017688221349221583
0.15893115020843265      0.017684763093390142
0.16893115020843266      0.017796262702291822
0.17893115020843267      0.017897104059024643
0.18893115020843268      0.017972052854387747
0.18893115020843268      0.017971870056507615
0.1989311502084327       0.01800075285168139
0.2089311502084327       0.018044377000219283
0.2189311502084327       0.018086930160376297
0.22893115020843272      0.01813576019035713
0.23893115020843272      0.018167240178642522
0.23893115020843272      0.01816880919103519
0.24893115020843273      0.01815923083166174
0.2589311502084327       0.01817348473155591
0.2689311502084327       0.018188636046304746
0.27893115020843273      0.018211264894845824
0.28893115020843274      0.018227898321522204
0.29893115020843275      0.018241415455191954
0.30893115020843276      0.018253664362007874
0.31893115020843277      0.01825305869163161
0.3289311502084328       0.018275916116760466
0.3389311502084328       0.018288985029867554
0.3389311502084328       0.01828722272162117
0.3489311502084328       0.018237967688848698
0.3589311502084328       0.01823378816144354
0.3689311502084328       0.018235414011215194
0.3789311502084328       0.018242231914047773
0.38893115020843283      0.01825403513876266
0.39893115020843284      0.01825637925568493
0.40893115020843285      0.01826079889150371
0.41893115020843286      0.018263859868969997
0.42893115020843287      0.018266670238566325
0.4389311502084329       0.018269032040673077
0.4489311502084329       0.018266365029706404
0.4589311502084329       0.01826789350066081
0.4689311502084329       0.01827051774380868
0.4789311502084329       0.018274923200121366
0.4889311502084329       0.018273023331719443
0.4989311502084329       0.018275552879906676
0.5089311502084329       0.01827268061930544
0.518931150208433        0.01827676006389313
0.528931150208433        0.018273679313540823
0.538931150208433        0.01827271106690908
0.548931150208433        0.018275743262789745
0.558931150208433        0.0182730686843738
0.568931150208433        0.0182724110149861
0.578931150208433        0.01826974785464541
0.588931150208433        0.018272766639985602
0.598931150208433        0.01827221356904586
0.608931150208433        0.018267887827503985
0.618931150208433        0.01827529331358815
0.628931150208433        0.01826797606347937
0.638931150208433        0.018268766838218896
0.6489311502084331       0.018266003713165047
0.6589311502084331       0.01826432842184098
0.6689311502084331       0.018263808889657646
0.6789311502084331       0.01826288463731198
0.6889311502084331       0.018262485153265878
0.6989311502084331       0.018260639402491435
0.7089311502084331       0.018259949184522718
0.7189311502084331       0.018259569799522306
0.7289311502084331       0.018258599364338705
0.7389311502084331       0.01825731016618249
0.7489311502084331       0.01825683143277714
0.7589311502084332       0.01825500546007641
0.7689311502084332       0.018253147278407544
0.7789311502084332       0.018251554737232657
0.7889311502084332       0.018251495253421984
0.7989311502084332       0.01825019963280815
0.8089311502084332       0.018249421798973917
0.8189311502084332       0.01824701812636097
0.8289311502084332       0.01824548571286713
0.8389311502084332       0.01824411407837451
0.8489311502084332       0.018243493667269208
0.8589311502084332       0.01824139487345425
0.8689311502084333       0.018240170054647977
0.8789311502084333       0.01823909043552471
0.8889311502084333       0.018237875010970305
0.8989311502084333       0.018236071129215832
0.9089311502084333       0.018235524971928468
0.9189311502084333       0.01823410544525301
0.9289311502084333       0.01823281083767345
0.9389311502084333       0.018231743259362974
0.9489311502084333       0.018229894690471697
0.9589311502084333       0.01822851444400423
0.9689311502084333       0.01822741967148116
0.9789311502084334       0.018225317069957715
0.9889311502084334       0.01822383576329965
0.9989311502084334       0.0182225277860857
1.0089311502084333       0.018222587080531788
1.0189311502084333       0.01822293763404509
1.0289311502084333       0.0182229809784374
1.0389311502084333       0.01822276091255218
1.0489311502084333       0.01822387446534816
1.0589311502084333       0.01822407303334354
1.0689311502084333       0.018224532962144314
1.0789311502084333       0.018224977029402973
1.0889311502084333       0.018224586817829416
1.0989311502084333       0.018224593715848898
1.1089311502084334       0.01822508186675965
1.1189311502084334       0.018223976823636672
1.1289311502084334       0.018223227615402158
1.1389311502084334       0.018223817827543037
1.1489311502084334       0.018224466277394144
1.1589311502084334       0.018224113891600856
1.1689311502084334       0.018223806315217222
1.1789311502084334       0.01822327753915609
1.1889311502084334       0.018221075914477084
1.1989311502084334       0.01821884054506841
1.2089311502084334       0.018216123160683627
1.2189311502084335       0.018214850040334466
1.2289311502084335       0.018212176995794412
1.2389311502084335       0.01820917517731833
1.2489311502084335       0.018204768080031398
1.2589311502084335       0.018200489911218698
1.2689311502084335       0.01819566346077323
1.2789311502084335       0.018190772566644732
1.2889311502084335       0.018184404070754803
1.2989311502084335       0.018178769871424628
1.3089311502084335       0.018172685266464993
1.3189311502084335       0.01816592691523261
1.3289311502084336       0.01815841161944198
1.3389311502084336       0.01815189583633794
1.3489311502084336       0.01814448111128915
1.3589311502084336       0.018136412531558153
1.3689311502084336       0.018127598792324912
1.3789311502084336       0.018118728871841048
1.3889311502084336       0.018109916749796395
1.3989311502084336       0.018100719575871605
1.3989311502084336       0.018099251667001194
1.4089311502084336       0.018070412119077818
1.4189311502084336       0.018055926129922212
1.4289311502084336       0.018047511946077746
1.4389311502084337       0.018037303280746264
1.4489311502084337       0.018024951603383063
1.4589311502084337       0.018013230395734926
1.4689311502084337       0.018001671615147305
1.4789311502084337       0.01799085522943139
1.4889311502084337       0.017979366526195244
1.4989311502084337       0.017966686941637156
1.5089311502084337       0.017951609880207525
1.5189311502084337       0.01793719864785206
1.5289311502084337       0.017922574421685208
1.5389311502084337       0.017906776949014064
1.5489311502084337       0.01789149828651526
1.5589311502084338       0.017875076127103415
1.5689311502084338       0.01785974908088744
1.5789311502084338       0.01784478509672541
1.5889311502084338       0.017826707673282687
1.5989311502084338       0.01780768704402443
1.6089311502084338       0.01779026567398775
1.6189311502084338       0.017773200114922904
1.6289311502084338       0.017755303511868357
1.6389311502084338       0.01773716951432953
1.6489311502084338       0.017716764536199192
1.6589311502084338       0.017696620371547307
1.6689311502084339       0.017676528661462586
1.6789311502084339       0.017657639821851232
1.6889311502084339       0.01763587308292779
1.6989311502084339       0.01761371075315347
1.708931150208434        0.01759194271240853
1.718931150208434        0.01757144378371992
1.728931150208434        0.017547889834180434
1.738931150208434        0.01752479232014102
1.748931150208434        0.01750095647126389
1.758931150208434        0.01747842894792278
1.768931150208434        0.017452341136578887
1.778931150208434        0.01742751651913517
1.788931150208434        0.0174026679053336
1.798931150208434        0.01737766387690208
1.808931150208434        0.017350656653879453
1.818931150208434        0.01732507267881208
1.828931150208434        0.017299707726513812
1.838931150208434        0.017270311826855355
1.848931150208434        0.017245764964404255
1.858931150208434        0.017215529714163704
1.868931150208434        0.017187587653100765
1.878931150208434        0.01715946077630653
1.888931150208434        0.01713033110003776
1.898931150208434        0.017094406777305466
1.908931150208434        0.01706992468062437
1.918931150208434        0.017035246629530914
1.928931150208434        0.017004714811792374
1.938931150208434        0.016971366703877073
1.948931150208434        0.016939934194383846
1.9589311502084341       0.01690527436009042
1.9689311502084341       0.016876155047039747
1.9789311502084341       0.016837614169215934
1.9889311502084341       0.016801174391846332
1.9989311502084341       0.016768732023030204
2.008931150208434        0.01673579912440373
2.018931150208434        0.016701716667992788
2.0289311502084337       0.01666048518530897
2.0389311502084335       0.016625986227002554
2.0489311502084333       0.016588431031561244
2.058931150208433        0.016553196033827506
2.068931150208433        0.016513454541528232
2.0789311502084327       0.016475450982587816
2.0889311502084325       0.01643859262782715
2.0889311502084325       0.016436103523982237
2.0989311502084322       0.016475233014047463
2.108931150208432        0.016442246656152727
2.118931150208432        0.016395787123189755
2.1289311502084316       0.016358515665891235
2.1389311502084314       0.01631963367783101
2.148931150208431        0.016279132946242243
2.158931150208431        0.016235358302031568
2.1689311502084307       0.016193003570452377
2.1789311502084305       0.016152397515531523
2.1889311502084303       0.0161072047627029
2.19893115020843         0.01606548875984163
2.20893115020843         0.016023297040473373
2.2189311502084297       0.015977774771527235
2.2289311502084295       0.01593645868113282
2.2389311502084293       0.015890614663742822
2.248931150208429        0.015847204784691198
2.258931150208429        0.01580159514573366
2.2689311502084286       0.015752715297681717
2.2789311502084284       0.01571033970634633
2.288931150208428        0.015661802324921925
2.298931150208428        0.015613602309918779
2.3089311502084278       0.01556124906688678
2.3189311502084275       0.015512195627388065
2.3289311502084273       0.015461727244180708
2.338931150208427        0.015413311470863136
2.348931150208427        0.015376438004523815
2.3589311502084267       0.015298827611667527
2.3689311502084265       0.015251991757604406
2.3789311502084263       0.015185180410177274
2.3789311502084263       0.015184581322983792
2.388931150208426        0.015131947503792698
2.398931150208426        0.015150976342671874
2.4089311502084256       0.015176067812411494
2.4114311502084256       0.015166461522523808
2.4164311502084255       0.015126867912321727
2.4214311502084254       0.015093630040965457
2.431431150208425        0.015034669539294374
2.441431150208425        0.014978206767561966
2.4514311502084247       0.014926342770453255
2.4614311502084245       0.014862007085874023
2.4714311502084243       0.014807427706354636
2.481431150208424        0.014737942526858554
2.491431150208424        0.014683922153647857
2.5014311502084237       0.014613643119665287
2.5114311502084234       0.014551428443605914
2.5214311502084232       0.014479120153456596
2.531431150208423        0.014429305061014908
2.541431150208423        0.014369965594080141
2.5514311502084226       0.01430938498109182
2.5614311502084224       0.014268895409537321
2.571431150208422        0.01418394866364598
2.571431150208422        0.014183904431220532
2.581431150208422        0.014072624602207151
2.5914311502084217       0.013943676597338688
2.6014311502084215       0.013883009882888035
2.6114311502084213       0.013857833498642
2.6139311502084213       0.013849153109687061
2.618931150208421        0.01381236898438101
2.623931150208421        0.013778451435195096
2.633931150208421        0.013707920779750579
2.6439311502084206       0.01362221731634073
2.6539311502084204       0.013545868362585187
2.66393115020842         0.013483611319084227
2.67393115020842         0.01340599638876552
2.6839311502084198       0.013364146470189794
2.6839311502084198       0.013354302067419832
2.6939311502084196       0.01332428890518959
2.7039311502084193       0.013039496166255497
2.713931150208419        0.012790749873046407
2.723931150208419        0.012746763386421462
2.7339311502084187       0.012694211075934235
2.7439311502084185       0.012631526604737608
2.7464311502084184       0.012623667119318789
2.7486061502084183       0.012620354501209283
2.749149900208418        0.012614814116560825
2.7502374002084182       0.012605325443346919
2.7513249002084184       0.012595385363385093
2.7526299002084182       0.012585723020582928
2.7537652502084184       0.012575747138114744
2.7540490877084185       0.012573075952411559
2.7540490877084185       0.01257397381878786
2.7546167627084186       0.012567433021406713
2.7551844377084187       0.012541629722815154
2.756319787708419        0.012486409804297188
2.757682207708419        0.012480082848804249
2.759044627708419        0.012494257192810932
2.760652283308419        0.01246878708993952
2.762549316916419        0.012430290058474108
2.764787816573859        0.012515753888933754
2.767429246169638        0.012801853616697511
2.7705461330926573       0.013179841910454862
2.77422405966182         0.013444856973535146
2.7785640130134324       0.013513162325229366
2.783685157968335        0.013413543039132638
2.78972810901512         0.013187556351173038
2.7997281090151196       0.012900218896075896
2.8097281090151194       0.012782409279910988
2.819728109015119        0.012787610316496341
2.829728109015119        0.012728186255904841
2.8397281090151187       0.012602291076818043
2.8497281090151185       0.01249364724333936
2.8597281090151183       0.012377995537201335
2.8622281090151183       0.012350415427349153
2.8652281090151184       0.012323221696000815
2.867838109015118        0.012299425965321513
2.870448109015118        0.01229193789187722
2.8730581090151177       0.012276337060391617
2.8756681090151175       0.012248887559082947
2.8782781090151173       0.012195721242313703
2.880888109015117        0.012145810761524187
2.883498109015117        0.012126168649778928
2.8861081090151166       0.012102865303316359
2.8887181090151164       0.012082543437156017
2.891328109015116        0.012043522451597385
2.893938109015116        0.012002189945415406
2.899158109015116        0.011979227260466591
2.904378109015116        0.011978682566680856
2.908919509015116        0.011972623975662223
2.913460909015116        0.01196616845614831
2.9180023090151157       0.011955237036061477
2.9180023090151157       0.011947521923713015
2.9225437090151156       0.012073931318542282
2.9270851090151155       0.011950416366856079
2.9325347890151154       0.011618995432002583
2.9337200944151154       0.011527480433126767
2.9349053998151153       0.011447619396289833
2.9352017261651153       0.011428056143365523
2.9354980525151153       0.011401671810393199
2.9357943788651153       0.01137477656372671
2.9360907052151153       0.011349535956323934
2.9363870315651153       0.011317356891340537
2.9366833579151153       0.011287528117679812
2.9369796842651152       0.011262702171211964
2.9372760106151152       0.011242301984732209
2.937572336965115        0.011225946994561451
2.938164989665115        0.011200739785944581
2.938876172905115        0.011177848110065485
2.939715369128315        0.011129561056175824
2.9407056206716913       0.011079737056211847
2.941874117492875        0.011050971794253003
2.9432529437418715       0.01106334626004837
2.943552838451028        0.011057585382286562
2.9438527331601847       0.011055785972198615
2.9441526278693413       0.011057758560559499
2.944452522578498        0.011063309132633512
2.9447524172876545       0.011072488188922005
2.945052311996811        0.011084903364733459
2.9453522067059676       0.011100328549663602
2.9456521014151242       0.01111748125743944
2.9456521014151242       0.011118702002225513
2.945951996124281        0.01114170363734554
2.9462518908334374       0.011173951407652486
2.946851680251751        0.01124413201146219
2.9480512590883783       0.011312796522331466
2.9492508379250055       0.011332777152306666
2.95164999559826         0.011471889690754973
2.9540491532715145       0.011663479950218755
2.956448310944769        0.011811170486862935
2.9612466262912776       0.011686628998154244
2.962446205127905        0.01162619716260204
2.9638856997318572       0.011529186280534107
2.9655843033645213       0.011410635602144593
2.9675886556510647       0.011263952131485271
2.969953791349186        0.011148192642968738
2.9727446514729694       0.011115942516635828
2.9760378664190337       0.01124039912587518
2.9799238600553895       0.011450080487237623
2.9807690636712967       0.011496197515980296
2.981614267287204        0.011540935720671074
2.982459470903111        0.011581347702617657
2.9833046745190184       0.011617192037655967
2.9841498781349256       0.011648130590439457
2.984995081750833        0.011673000976829967
2.98584028536674         0.011691100697011798
2.9866854889826473       0.011701478859641422
2.9875306925985545       0.011702564810684487
2.9883758962144618       0.011693320374528676
2.989221099830369        0.011678483884349465
2.990911507062184        0.011616824457951012
2.992601914293999        0.011513151001268668
2.9959827287576286       0.011174891014262885
3.002744357684888        0.010899720017755465
3.009505986612147        0.011006897925270633
3.016267615539406        0.01109437751318056
3.0236769186812134       0.01099052625444909
3.030123012414586        0.010865177529344183
3.0365691061479585       0.010758699640278039
3.043015199881331        0.010677059829171734
3.0494612936147036       0.010615801893365355
3.055907387348076        0.010518268089212881
3.062353481081449        0.010395170940725833
3.062353481081449        0.010390389565957062
3.0639650045147917       0.010458246269474513
3.0655765279481346       0.010362667962252221
3.0671880513814775       0.010164044772700744
3.070411098248164        0.009822703551605038
3.07363414511485         0.009585402355388913
3.07363414511485         0.009573239711686398
3.0800802388482227       0.009142069586042401
3.0816917622815656       0.008990908000841569
3.0816917622815656       0.009001721920146293
3.0824975239982373       0.008963971248801723
3.082698964427405        0.008959348960073301
3.083101845285741        0.008984788907998031
3.083504726144077        0.0090533110627955
3.0843104878607486       0.009371924642507731
3.0859220112940915       0.010257031464947029
3.0875335347274344       0.01087676887256625
3.0891450581607773       0.01105489499051088
3.091078886280789        0.01092888279637886
3.0914994938968916       0.010891778297627153
3.091920101512994        0.010842125260208078
3.0923407091290964       0.010783655202684529
3.092761316745199        0.010724409897238697
3.0931819243613012       0.010668509082685431
3.0936025319774036       0.010620612202275233
3.094023139593506        0.01057962501480698
3.0944437472096085       0.010551925887503956
3.094864354825711        0.010538309330255027
3.0952849624418133       0.010520025314709937
3.0957055700579157       0.010511548957866084
3.096546785290121        0.010512302853492566
3.097388000522326        0.01050483521280272
3.0982292157545315       0.010376627119518082
3.0982292157545315       0.01036402175872168
3.0999116462189416       0.009432796970553978
3.1015940766833516       0.00870654855817353
3.103960554390734        0.009018405814578082
3.1060903843273784       0.00984633742163836
3.1082202142640227       0.010477993196702454
3.110350044200667        0.010753626124405426
3.110350044200667        0.010736565300013302
3.1146097040739553       0.009258215181591999
3.1146097040739553       0.009259169213897411
3.1151421615581163       0.009147308747029827
3.1156746190422773       0.008979305473862022
3.1162070765264382       0.008787530974754734
3.11727199149476         0.008316151646354727
3.117538220236841        0.008178064472964038
3.118070677721002        0.007903263501525797
3.118603135205163        0.007594721560719685
3.1187189447079677       0.007515869159576815
3.1188347542107726       0.0074386473015502705
3.1189505637135775       0.007362759673476375
3.118979516089279        0.00734387264381001
3.11900846846498         0.007325138839589431
3.1190374208406815       0.007306542523677351
3.119066373216383        0.0072880560689518245
3.119095325592084        0.007269682649700942
3.1191242779677855       0.007251417016378246
3.119153230343487        0.007233255836695297
3.119182182719188        0.007215197758030957
3.119240087470591        0.007179576955636865
3.1193558969733957       0.007110243242647654
3.1193558969733957       0.00709586332513527
3.1198191349846156       0.006820943678573048
3.1202823729958356       0.006628092667329815
3.1211162014160316       0.006760104563488262
3.1219500298362277       0.007358680313524109
3.1219500298362277       0.007354969459759646
3.122783858256424        0.008336249481015554
3.12361768667662         0.009421937508212463
3.12361768667662         0.009419696464577944
3.125118577832973        0.010870223271535438
3.1266194689893263       0.011807188666488212
3.12842053837695         0.012298818139239512
3.12842053837695         0.012301890074574093
3.1302216077645735       0.011838798365926013
3.132022677152197        0.011526032283781101
3.1341839604173454       0.011265427735365242
3.1347242812336327       0.01120365474393788
3.135804922866207        0.010566013162492845
3.135804922866207        0.01056883730975091
3.136559351783217        0.009441111119197834
3.136559351783217        0.009438469367325456
3.136653655397843        0.009089526662924528
3.1367385286510068       0.008464518940939393
3.1367597469642976       0.00830428061133169
3.1368021835908793       0.007975986446774868
3.136887056844043        0.007297013499480906
3.136887056844043        0.007296640682699987
3.1370568033503705       0.006072574399669083
3.1370568033503705       0.0060725564837724524
3.1371416766035343       0.005405963153210392
3.137226549856698        0.004708772433039375
3.137226549856698        0.004708533964561772
3.1373114231098618       0.004026391604974866
3.1373962963630255       0.003421502188398484
3.1373962963630255       0.0034215338664089594
3.1374217583389745       0.0031842050169728423
3.1374472203149235       0.0029396527418852625
3.1374726822908725       0.0026879113487043166
3.1374726822908725       0.0026879672162419092
3.1375236062427705       0.002246732644811157
3.1375236062427705       0.002246221159420657
3.1375490682187195       0.001968420497552772
3.1375745301946685       0.0016698056935255008
3.1375745301946685       0.0016695469060427383
3.1376254541465665       0.0012294241008752385
3.1376254541465665       0.0012292389219388175
3.1376509161225155       9.133815907177469E-4
3.1376509161225155       9.135735774294315E-4
3.13766364711049         7.22181846638751E-4
3.13766364711049         7.215475717110321E-4
3.137671581435987        5.883880585593956E-4
3.137671581435987        5.883791969877629E-4
3.1376755485987355       5.167541246410903E-4
3.137679119045209        4.5034892923309297E-4
3.137679119045209        4.502812411427172E-4
3.1376862599381563       3.4290963354596804E-4
3.1376862599381563       3.4287870959029756E-4
3.13768983038463         2.883735297255774E-4
