% Model:              2D_2018_fixed_bottom_liquid__voltage_sweeps__2_wd_2mps.mph
% Version:            COMSOL 5.4.0.388
% Date:               Jun 24 2021, 15:10
% Table:              Probe Table 5 - 
% Time (s)               Spatial coordinate x (mm), x_center_of_mass
0                        26.800001253802158
2.34375E-5               26.80000087417591
4.19787453776274E-5      26.800000328384588
7.90612361328822E-5      26.799998229583014
1.5322621764339182E-4    26.799989861228397
2.2739119915390142E-4    26.799977240795638
3.757211621749206E-4     26.79993489554424
5.240511251959398E-4     26.79987556056749
6.72381088216959E-4      26.799799510333656
9.690410142589974E-4     26.79958366597988
0.0012657009403010358    26.79930732378713
0.0018590207923851127    26.79853921789259
0.0023930086592607817    26.797691292890566
0.0029269965261364507    26.79670196011659
0.0034609843930121197    26.79558363914258
0.004528960126763458     26.79306408886274
0.005596935860514796     26.79007925881966
0.006344037416617502     26.787685288600475
0.006344037416617502     26.787677645022892
0.007016428817109939     26.785129036878303
0.007688820217602374     26.782250916773403
0.007688820217602374     26.782252437281024
0.008357314366113984     26.779016754835908
0.008357314366113984     26.779015751654036
0.009122204491826302     26.77477490467184
0.009122204491826302     26.774779247883203
0.009590368324119693     26.77196848528267
0.009590368324119693     26.771968598023083
0.009824450240266389     26.77050510693309
0.009824450240266389     26.77050557150177
0.009941491198339735     26.769758149619427
0.009941491198339735     26.769758754166542
0.010058532156413082     26.76899462157538
0.010058532156413082     26.768994113471543
0.010117052635449757     26.76860748556312
0.010175573114486431     26.768216432947515
0.010175573114486431     26.7682189262068
0.010234093593523105     26.767823077399772
0.01029261407255978      26.767422536074058
0.01029261407255978      26.767422235092997
0.010397950934825793     26.766685890981496
0.010503287797091806     26.765934549960008
0.010503287797091806     26.765934896003063
0.010662382945496849     26.764767782333347
0.010662382945496849     26.764767476165034
0.010980573242306934     26.762322967040355
0.010980573242306934     26.762321884823187
0.011139668390711977     26.761072858424228
0.01129876353911702      26.759800254603146
0.01129876353911702      26.75980100901696
0.011585134806246096     26.757443484528764
0.011585134806246096     26.757442655140242
0.01215787734050425      26.752520704991216
0.01215787734050425      26.75252210952493
0.013303362409020558     26.742137332395615
0.013303362409020558     26.74213593258341
0.013876104943278712     26.736816964851464
0.014448847477536867     26.731402528382183
0.014448847477536867     26.73140025193177
0.01514726008647663      26.72468553853729
0.015845672695416393     26.71788998221823
0.015845672695416393     26.717886572002875
0.016667503692163844     26.70983166929209
0.017489334688911295     26.70177566177496
0.017489334688911295     26.70177490974847
0.01830055742819084      26.693871792171883
0.019111780167470383     26.686063578302782
0.019111780167470383     26.686062893441555
0.019919955715146764     26.678402449895703
0.020728131262823146     26.670873146639895
0.020728131262823146     26.670871252518317
0.021511212603244484     26.663690737198444
0.022294293943665822     26.656612472645655
0.022294293943665822     26.656607915498903
0.023125087885431255     26.64918158229824
0.023955881827196688     26.641809381247736
0.023955881827196688     26.64180687720689
0.02487687567921582      26.633658863696056
0.02579786953123495      26.62552031319497
0.02579786953123495      26.625514551852497
0.026803043718686203     26.616652581767138
0.027808217906137456     26.607849427664075
0.027808217906137456     26.607849741481193
0.02889127099265218      26.598479057396208
0.029974324079166902     26.589266378192868
0.029974324079166902     26.589262014334892
0.03140520122933837      26.57741257936622
0.03283607837950984      26.565894759002365
0.03283607837950984      26.565886523737326
0.034504277586748025     26.552886530245782
0.03617247679398621      26.54028548260899
0.03617247679398621      26.540282859735083
0.03794055037027645      26.52732537159385
0.03970862394656669      26.514733689468923
0.03970862394656669      26.51472387861013
0.04194492975642087      26.499322808302207
0.04418123556627505      26.48441021869301
0.04418123556627505      26.484400511348255
0.04743120711366092      26.46371460774035
0.04743120711366092      26.463708675854633
0.05393115020843266      26.425967319848745
0.05393115020843266      26.425952290756108
0.06393115020843265      26.375061009534797
0.06393115020843265      26.375047494686445
0.06893115020843266      26.351070118830993
0.06893115020843266      26.351058862362876
0.07893115020843265      26.30853950881799
0.07893115020843265      26.30853175884759
0.08893115020843265      26.270526925645246
0.08893115020843265      26.27051938805036
0.09893115020843264      26.236351156867492
0.09893115020843264      26.236342225401444
0.10893115020843264      26.20553035529133
0.10893115020843264      26.20552831864695
0.11893115020843263      26.177646462423613
0.11893115020843263      26.177637381237624
0.12893115020843263      26.15234401160968
0.13893115020843264      26.12938967057744
0.13893115020843264      26.129377405557843
0.14893115020843264      26.108424691134122
0.15893115020843265      26.0893027594724
0.15893115020843265      26.089295496435522
0.16893115020843266      26.071773856963397
0.17893115020843267      26.055767799962045
0.18893115020843268      26.04068488975615
0.18893115020843268      26.040675163110084
0.1989311502084327       26.027174512598176
0.2089311502084327       26.01474624729367
0.2189311502084327       26.002984053847744
0.22893115020843272      25.992461386215165
0.23893115020843272      25.982754541305773
0.23893115020843272      25.98274151313913
0.24893115020843273      25.973660919008537
0.2589311502084327       25.965246203847787
0.2689311502084327       25.9572573072278
0.27893115020843273      25.95006560594194
0.28893115020843274      25.94340469415749
0.29893115020843275      25.937229243855576
0.30893115020843276      25.931498696590403
0.31893115020843277      25.926018948922064
0.3289311502084328       25.920908355723597
0.3389311502084328       25.91616394296538
0.3389311502084328       25.916140466410138
0.3489311502084328       25.911805111833452
0.3589311502084328       25.90772776677155
0.3689311502084328       25.903824385757186
0.3789311502084328       25.900258356682297
0.38893115020843283      25.896927834803435
0.39893115020843284      25.893817306035356
0.40893115020843285      25.8909147540875
0.41893115020843286      25.888204056022854
0.42893115020843287      25.885672021804314
0.4389311502084329       25.883309901929497
0.4489311502084329       25.88109102392378
0.4589311502084329       25.87902146918173
0.4689311502084329       25.877083628713326
0.4789311502084329       25.875267016549163
0.4889311502084329       25.873566043548998
0.4989311502084329       25.871968354959524
0.5089311502084329       25.870459869290556
0.518931150208433        25.86902225095451
0.528931150208433        25.867660659771786
0.538931150208433        25.86636353414763
0.548931150208433        25.86512673081441
0.558931150208433        25.86395161861843
0.568931150208433        25.862837809917618
0.578931150208433        25.86177750221888
0.588931150208433        25.860761693163123
0.598931150208433        25.85979446454255
0.608931150208433        25.858878644566136
0.618931150208433        25.85801203322055
0.628931150208433        25.8571895468489
0.638931150208433        25.85642220051148
0.6489311502084331       25.85570122211262
0.6589311502084331       25.85502530423339
0.6689311502084331       25.854375252597375
0.6789311502084331       25.853760266268758
0.6889311502084331       25.853174061794853
0.6989311502084331       25.852642804421734
0.7089311502084331       25.852147435238372
0.7189311502084331       25.851692471146638
0.7289311502084331       25.851268287343313
0.7389311502084331       25.850872301490273
0.7489311502084331       25.85048299914194
0.7589311502084332       25.85012098081611
0.7689311502084332       25.849786808798367
0.7789311502084332       25.84948657619164
0.7889311502084332       25.849191940849746
0.7989311502084332       25.848914728563926
0.8089311502084332       25.848643843635056
0.8189311502084332       25.84840515765154
0.8289311502084332       25.84819280268671
0.8389311502084332       25.84800653298558
0.8489311502084332       25.84783398276913
0.8589311502084332       25.847691680687884
0.8689311502084333       25.847562452237657
0.8789311502084333       25.84744388447826
0.8889311502084333       25.84733330466403
0.8989311502084333       25.847235776787613
0.9089311502084333       25.84712987098775
0.9189311502084333       25.847021569347056
0.9289311502084333       25.846902866583942
0.9389311502084333       25.84677509382567
0.9489311502084333       25.846647471681095
0.9589311502084333       25.846510942508537
0.9689311502084333       25.84637100405952
0.9789311502084334       25.84624174617798
0.9889311502084334       25.846128502060214
0.9989311502084334       25.846049915877504
1.0089311502084333       25.846003834041657
1.0189311502084333       25.845989774732335
1.0289311502084333       25.846009106298943
1.0389311502084333       25.846062279262984
1.0489311502084333       25.846127721391728
1.0589311502084333       25.846200602206768
1.0689311502084333       25.84626572189972
1.0789311502084333       25.846314005615863
1.0889311502084333       25.84634975091091
1.0989311502084333       25.84635952734093
1.1089311502084334       25.846345438723304
1.1189311502084334       25.846323425399234
1.1289311502084334       25.846311707482023
1.1389311502084334       25.846301495949884
1.1489311502084334       25.846292967942148
1.1589311502084334       25.846290915009153
1.1689311502084334       25.846284026772484
1.1789311502084334       25.846272344595207
1.1889311502084334       25.846266765811908
1.1989311502084334       25.846265755712405
1.2089311502084334       25.846279922381065
1.2189311502084335       25.846283914180376
1.2289311502084335       25.846272991645204
1.2389311502084335       25.846230935628835
1.2489311502084335       25.846172605584776
1.2589311502084335       25.846101180794335
1.2689311502084335       25.84602066040401
1.2789311502084335       25.845921738246563
1.2889311502084335       25.845821413430254
1.2989311502084335       25.8457087732337
1.3089311502084335       25.84558371460455
1.3189311502084335       25.845442385180398
1.3289311502084336       25.845291022221762
1.3389311502084336       25.84510820181558
1.3489311502084336       25.84489722828184
1.3589311502084336       25.84464954004911
1.3689311502084336       25.844387733986142
1.3789311502084336       25.84412121184386
1.3889311502084336       25.843851141315366
1.3989311502084336       25.84358637307713
1.3989311502084336       25.843560008430448
1.4089311502084336       25.843160197127958
1.4189311502084336       25.842675048679766
1.4289311502084336       25.84215583831341
1.4389311502084337       25.841615890337714
1.4489311502084337       25.841111234117786
1.4589311502084337       25.840652358981554
1.4689311502084337       25.840252615696595
1.4789311502084337       25.83988287396686
1.4889311502084337       25.83953150044656
1.4989311502084337       25.839211214076094
1.5089311502084337       25.838937882690228
1.5189311502084337       25.838671342651917
1.5289311502084337       25.83840250190767
1.5389311502084337       25.83813920221361
1.5489311502084337       25.837861604686402
1.5589311502084338       25.837574008363628
1.5689311502084338       25.83724566636609
1.5789311502084338       25.836871246369014
1.5889311502084338       25.83645044233108
1.5989311502084338       25.83602358834925
1.6089311502084338       25.835562363506018
1.6189311502084338       25.835071219960764
1.6289311502084338       25.83456378064882
1.6389311502084338       25.8340306392846
1.6489311502084338       25.83348566112284
1.6589311502084338       25.83294379713056
1.6689311502084339       25.832411138089572
1.6789311502084339       25.831887372282807
1.6889311502084339       25.83135004276944
1.6989311502084339       25.830804194115064
1.708931150208434        25.83025319344085
1.718931150208434        25.829682810647267
1.728931150208434        25.829099540431272
1.738931150208434        25.828510319159896
1.748931150208434        25.82792171477936
1.758931150208434        25.82732929543051
1.768931150208434        25.826712831812614
1.778931150208434        25.826077464508487
1.788931150208434        25.82542413396646
1.798931150208434        25.824742928695233
1.808931150208434        25.82403802569267
1.818931150208434        25.823307697158516
1.828931150208434        25.82254848802876
1.838931150208434        25.821763244932484
1.848931150208434        25.820966041307322
1.858931150208434        25.820173570094493
1.868931150208434        25.819380734976537
1.878931150208434        25.81858341159901
1.888931150208434        25.817787981328387
1.898931150208434        25.816994020681907
1.908931150208434        25.816191860182794
1.918931150208434        25.815369307575793
1.928931150208434        25.814529595210537
1.938931150208434        25.81367557523199
1.948931150208434        25.812796518727247
1.9589311502084341       25.811890254829922
1.9689311502084341       25.810990231475014
1.9789311502084341       25.8100600525057
1.9889311502084341       25.809089340730395
1.9989311502084341       25.808071317853738
2.008931150208434        25.807033052959014
2.018931150208434        25.805965693567213
2.0289311502084337       25.804882871384585
2.0389311502084335       25.803804529911343
2.0489311502084333       25.802716016622817
2.058931150208433        25.8016048131906
2.068931150208433        25.800454155416922
2.0789311502084327       25.79930737845965
2.0889311502084325       25.798151771877233
2.0889311502084325       25.798142104722498
2.0989311502084322       25.79713566411223
2.108931150208432        25.79631655093766
2.118931150208432        25.795601826482567
2.1289311502084316       25.795035424386132
2.1389311502084314       25.79450985539066
2.148931150208431        25.793966059971755
2.158931150208431        25.79333837528552
2.1689311502084307       25.79258715072812
2.1789311502084305       25.7916852647052
2.1889311502084303       25.790611097416992
2.19893115020843         25.78935256582355
2.20893115020843         25.78792098662503
2.2189311502084297       25.78633738145584
2.2289311502084295       25.78463848531627
2.2389311502084293       25.782864927371882
2.248931150208429        25.781056051224592
2.258931150208429        25.77925047854962
2.2689311502084286       25.777478264626417
2.2789311502084284       25.77575883712696
2.288931150208428        25.774105322353204
2.298931150208428        25.772507339473314
2.3089311502084278       25.770954751383087
2.3189311502084275       25.769444094501477
2.3289311502084273       25.767960221322376
2.338931150208427        25.766487873276745
2.348931150208427        25.764983825018547
2.3589311502084267       25.763418368993083
2.3689311502084265       25.761777500756452
2.3789311502084263       25.76005397821682
2.3789311502084263       25.760044106237682
2.388931150208426        25.75794991451384
2.398931150208426        25.755911203646107
2.4089311502084256       25.754073589094954
2.4114311502084256       25.75365327223136
2.4164311502084255       25.75290342528643
2.4214311502084254       25.75222399155069
2.431431150208425        25.751071722379784
2.441431150208425        25.750035483281252
2.4514311502084247       25.748990524799567
2.4614311502084245       25.7478509581703
2.4714311502084243       25.746524284259635
2.481431150208424        25.74494829167623
2.491431150208424        25.743119776892595
2.5014311502084237       25.741046036896527
2.5114311502084234       25.738729348839303
2.5214311502084232       25.736219506990853
2.531431150208423        25.733561619965855
2.541431150208423        25.730793267210036
2.5514311502084226       25.727968043214926
2.5614311502084224       25.725132246554818
2.571431150208422        25.722310474034078
2.571431150208422        25.722295123852348
2.581431150208422        25.71900001105909
2.5914311502084217       25.71514568618027
2.6014311502084215       25.711021118182387
2.6114311502084213       25.706767111642144
2.6139311502084213       25.70570370069345
2.618931150208421        25.70362527586478
2.623931150208421        25.701614303295646
2.633931150208421        25.697973304762257
2.6439311502084206       25.694724904952036
2.6539311502084204       25.69184938350944
2.66393115020842         25.689279584750498
2.67393115020842         25.68696136768541
2.6839311502084198       25.684829059030246
2.6839311502084198       25.68481747256245
2.6939311502084196       25.682436213704584
2.7039311502084193       25.678762694239218
2.713931150208419        25.67392860331066
2.723931150208419        25.667275465720678
2.7339311502084187       25.66018985360765
2.7439311502084185       25.653140498522607
2.7464311502084184       25.651381300102784
2.7486061502084183       25.64986029199991
2.749149900208418        25.64947893851146
2.7502374002084182       25.648720548189285
2.7513249002084184       25.64796532318744
2.7526299002084182       25.64706469106839
2.7537652502084184       25.646285111727614
2.7540490877084185       25.646089578876012
2.7540490877084185       25.646076383379757
2.7546167627084186       25.645684473100054
2.7551844377084187       25.64529270607103
2.756319787708419        25.644509708535267
2.757682207708419        25.643569083592567
2.759044627708419        25.6426376061663
2.760652283308419        25.641546702533386
2.762549316916419        25.64026890844686
2.764787816573859        25.63880965125378
2.767429246169638        25.637299787693223
2.7705461330926573       25.635997582073873
2.77422405966182         25.635266869692536
2.7785640130134324       25.635616285743694
2.783685157968335        25.63750991134977
2.78972810901512         25.641245171404865
2.7997281090151196       25.649396695986738
2.8097281090151194       25.65806436510159
2.819728109015119        25.666165679034485
2.829728109015119        25.672773162499556
2.8397281090151187       25.676907369958606
2.8497281090151185       25.677967733975372
2.8597281090151183       25.676812459669602
2.8622281090151183       25.676120921399274
2.8652281090151184       25.67500734986795
2.867838109015118        25.67378486848455
2.870448109015118        25.6722184513316
2.8730581090151177       25.67044213181656
2.8756681090151175       25.668459404503405
2.8782781090151173       25.666279569544272
2.880888109015117        25.663912047753612
2.883498109015117        25.661372237152566
2.8861081090151166       25.65867903191647
2.8887181090151164       25.655841960373063
2.891328109015116        25.652867675059536
2.893938109015116        25.649764967909803
2.899158109015116        25.64332158984399
2.904378109015116        25.63658376510557
2.908919509015116        25.630561910485586
2.913460909015116        25.62460769068615
2.9180023090151157       25.61884277534543
2.9180023090151157       25.618835317238258
2.9225437090151156       25.61349177052367
2.9270851090151155       25.60848165912135
2.9325347890151154       25.60257818423535
2.9337200944151154       25.601308645432216
2.9349053998151153       25.60002965102583
2.9352017261651153       25.599708285993263
2.9354980525151153       25.599386070736582
2.9357943788651153       25.599062921957177
2.9360907052151153       25.598738760669086
2.9363870315651153       25.598413496684252
2.9366833579151153       25.598087050906017
2.9369796842651152       25.597759354137793
2.9372760106151152       25.597430349537728
2.937572336965115        25.5970999884109
2.938164989665115        25.596434441112986
2.938876172905115        25.595628563577186
2.939715369128315        25.594663716485552
2.9407056206716913       25.593507799225602
2.941874117492875        25.592115812866314
2.9432529437418715       25.590440581182328
2.943552838451028        25.59007338607379
2.9438527331601847       25.58970468012512
2.9441526278693413       25.589334558679273
2.944452522578498        25.588963133257128
2.9447524172876545       25.58859052138336
2.945052311996811        25.58821684621934
2.9453522067059676       25.587842248390633
2.9456521014151242       25.587467150011122
2.9456521014151242       25.587455399650427
2.945951996124281        25.587078321604807
2.9462518908334374       25.586700992406943
2.946851680251751        25.58594678193925
2.9480512590883783       25.584445561425518
2.9492508379250055       25.582953768182882
2.95164999559826         25.580088895268382
2.9540491532715145       25.57742697300757
2.956448310944769        25.57502283955366
2.9612466262912776       25.571096742547116
2.962446205127905        25.57016210154064
2.9638856997318572       25.5691011084547
2.9655843033645213       25.567914649811016
2.9675886556510647       25.566578640281758
2.969953791349186        25.56506652742177
2.9727446514729694       25.563392295391264
2.9760378664190337       25.561693575748958
2.9799238600553895       25.560281249448444
2.9807690636712967       25.560002465577078
2.981614267287204        25.559755232859057
2.982459470903111        25.559541312714522
2.9833046745190184       25.559362344756682
2.9841498781349256       25.559219570074458
2.984995081750833        25.559113964666206
2.98584028536674         25.5590461577366
2.9866854889826473       25.55901640025533
2.9875306925985545       25.559024523012543
2.9883758962144618       25.559069907679802
2.989221099830369        25.559137231715304
2.990911507062184        25.559377862949795
2.992601914293999        25.559741720188686
2.9959827287576286       25.560783730634906
3.002744357684888        25.562871734670686
3.009505986612147        25.565259050776156
3.016267615539406        25.5680252628036
3.0236769186812134       25.570974652016005
3.030123012414586        25.573037583721256
3.0365691061479585       25.574291316847486
3.043015199881331        25.57456476427488
3.0494612936147036       25.574074462452064
3.055907387348076        25.572486598990707
3.062353481081449        25.569576938873475
3.062353481081449        25.569563236222294
3.0639650045147917       25.56856105091186
3.0655765279481346       25.567430637387357
3.0671880513814775       25.566131208831045
3.070411098248164        25.562632507780293
3.07363414511485         25.5581009908812
3.07363414511485         25.558107311339466
3.0800802388482227       25.543636371742704
3.0816917622815656       25.53966522353254
3.0816917622815656       25.53964784356314
3.0824975239982373       25.537576825402592
3.082698964427405        25.537053438308607
3.083101845285741        25.535988765538278
3.083504726144077        25.534907775219732
3.0843104878607486       25.53270751343099
3.0859220112940915       25.52832703996871
3.0875335347274344       25.52405435942852
3.0891450581607773       25.519909933958104
3.091078886280789        25.515096279668477
3.0914994938968916       25.514054163455643
3.091920101512994        25.513018256320652
3.0923407091290964       25.511988092515665
3.092761316745199        25.510963244295304
3.0931819243613012       25.509943359405813
3.0936025319774036       25.50892818516579
3.094023139593506        25.507915794242816
3.0944437472096085       25.5069079726319
3.094864354825711        25.505904414150752
3.0952849624418133       25.50490554243166
3.0957055700579157       25.5039114373279
3.096546785290121        25.501939417501006
3.097388000522326        25.49998726686163
3.0982292157545315       25.49804962865445
3.0982292157545315       25.498043469754833
3.0999116462189416       25.493959166145363
3.1015940766833516       25.489523736925342
3.103960554390734        25.482979451303624
3.1060903843273784       25.47718943406505
3.1082202142640227       25.47171998810971
3.110350044200667        25.466630761842136
3.110350044200667        25.466624079342928
3.1146097040739553       25.455854871323062
3.1146097040739553       25.455850739429504
3.1151421615581163       25.454487572538852
3.1156746190422773       25.453104955037244
3.1162070765264382       25.451697159799608
3.11727199149476         25.448724250754687
3.117538220236841        25.447969230364972
3.118070677721002        25.446405579958252
3.118603135205163        25.444775897883794
3.1187189447079677       25.444417799762174
3.1188347542107726       25.444056306169788
3.1189505637135775       25.443691285319982
3.118979516089279        25.443599742464368
3.11900846846498         25.44350797494057
3.1190374208406815       25.44341598120887
3.119066373216383        25.443323759196854
3.119095325592084        25.443231306843636
3.1191242779677855       25.44313862202428
3.119153230343487        25.44304570262301
3.119182182719188        25.442952546529444
3.119240087470591        25.442765329554998
3.1193558969733957       25.442387051113855
3.1193558969733957       25.442379238548927
3.1198191349846156       25.440792369735906
3.1202823729958356       25.43913625374379
3.1211162014160316       25.435986966236992
3.1219500298362277       25.432743533449717
3.1219500298362277       25.43274055677798
3.122783858256424        25.42946771103667
3.12361768667662         25.426237232696185
3.12361768667662         25.42623289748556
3.125118577832973        25.420777462302752
3.1266194689893263       25.41577730887193
3.12842053837695         25.410218041862482
3.12842053837695         25.4102221792969
3.1302216077645735       25.405529927938012
3.132022677152197        25.401443970447133
3.1341839604173454       25.397075430909442
3.1347242812336327       25.396107013401867
3.135804922866207        25.394276307416973
3.135804922866207        25.394271904716028
3.136559351783217        25.392933388295084
3.136559351783217        25.39293191269309
3.136653655397843        25.392761900364857
3.1367385286510068       25.392607588187197
3.1367597469642976       25.39256888983032
3.1368021835908793       25.392491141415114
3.136887056844043        25.39233378657742
3.136887056844043        25.392332718320596
3.1370568033503705       25.392004031322532
3.1370568033503705       25.39200759609376
3.1371416766035343       25.391839354236282
3.137226549856698        25.391666811742745
3.137226549856698        25.39166625322545
3.1373114231098618       25.391488370523625
3.1373962963630255       25.391304418570286
3.1373962963630255       25.391302911146866
3.1374217583389745       25.391247032813084
3.1374472203149235       25.391190535351377
3.1374726822908725       25.391133375948105
3.1374726822908725       25.391133735416375
3.1375236062427705       25.39101629543763
3.1375236062427705       25.391015929712434
3.1375490682187195       25.39095630234114
3.1375745301946685       25.390895778549652
3.1375745301946685       25.390895761981685
3.1376254541465665       25.390770436026628
3.1376254541465665       25.3907700389137
3.1376509161225155       25.390705852604068
3.1376509161225155       25.390705189422334
3.13766364711049         25.39067260536581
3.13766364711049         25.3906733962743
3.137671581435987        25.39065286206349
3.137671581435987        25.390652746786195
3.1376755485987355       25.39064237945551
3.137679119045209        25.390633017905863
3.137679119045209        25.390632929609577
3.1376862599381563       25.390614009297508
3.1376862599381563       25.39061405552259
3.13768983038463         25.390604521599688
