% Model:              2D_2018_fixed_bottom_liquid__voltage_sweeps__2_wd_1.5mps.mph
% Version:            COMSOL 5.4.0.388
% Date:               Jun 25 2021, 16:20
% Table:              Probe Table 5 - 
% Time (s)               Spatial coordinate x (mm), x_center_of_mass
0                        26.100002021404908
2.34375E-5               26.10000173738555
4.44953374929778E-5      26.100001246293086
8.661101247893339E-5     26.099999298729752
1.2872668746488898E-4    26.099996369289475
2.1295803743680018E-4    26.099986551453117
2.9718938740871134E-4    26.099972780518392
4.6565208735253373E-4    26.099929933821425
6.341147872963561E-4     26.099872438328
9.710401871840009E-4     26.09970530209199
0.0013079655870716455    26.099492555072224
0.001981816386846935     26.09893521994586
0.0026556671866222246    26.098292047480097
0.003329517986397514     26.09760378027333
0.004677219585948094     26.096218411630055
0.006024921185498673     26.09489469998411
0.006024921185498673     26.094895016024935
0.00713578005555405      26.093932166586278
0.00713578005555405      26.09393290274796
0.007714459473897022     26.09344528488838
0.007714459473897022     26.09344699650468
0.008445089221363252     26.09282395166276
0.008445089221363252     26.092818868293747
0.00888041906192153      26.092438795977003
0.00888041906192153      26.09243857048063
0.009098083982200668     26.092244803875836
0.009098083982200668     26.092242576683287
0.009315748902479807     26.092042731155164
0.009315748902479807     26.09204059571748
0.009424581362619375     26.091938375691292
0.009424581362619375     26.091935647533507
0.009533413822758944     26.091830462507723
0.009533413822758944     26.091829425147626
0.009751078743038082     26.09159978208651
0.009751078743038082     26.091600138843862
0.00985991120317765      26.091479008782194
0.00985991120317765      26.09147821825049
0.01007757612345679      26.091212021747918
0.01007757612345679      26.0912135385109
0.010186408583596358     26.091073687141627
0.010295241043735926     26.090928419390682
0.010295241043735926     26.09092592186056
0.01049113947198715      26.090648876054864
0.01049113947198715      26.09065178329137
0.0108829363284896       26.09005587410382
0.0108829363284896       26.09005390415762
0.011078834756740824     26.089747022116082
0.011274733184992048     26.089433985774036
0.011274733184992048     26.08943370139777
0.011627350355844251     26.088858958031963
0.011627350355844251     26.08885692781962
0.01233258469754866      26.087713711795562
0.01233258469754866      26.08771093485242
0.013743053380957477     26.08555229694892
0.013743053380957477     26.085552765548936
0.014448287722661886     26.084496669470557
0.015153522064366294     26.083460379756012
0.015153522064366294     26.083462290231818
0.015858756406070703     26.082431771206295
0.01656399074777511      26.081392335993396
0.01656399074777511      26.08139272136224
0.017459749304607343     26.08003652080864
0.017459749304607343     26.080034638884534
0.01925126641827181      26.07742956325569
0.01925126641827181      26.077425617268656
0.020147024975104042     26.0761783921309
0.021042783531936275     26.0750220764422
0.021042783531936275     26.075022967321942
0.022046749413539943     26.073872595211956
0.02305071529514361      26.07288850326592
0.024333605268239945     26.07180452245825
0.024333605268239945     26.071803431306932
0.02561649524133628      26.071074947188656
0.026899385214432615     26.07055545601644
0.026899385214432615     26.070553092191787
0.028226846458505296     26.07018840974147
0.029554307702577977     26.069963797286075
0.031036670850490455     26.069808981688748
0.031036670850490455     26.069816450896237
0.03251903399840293      26.069833105703594
0.034001397146315414     26.06996627950453
0.03597981334980124      26.070348604119825
0.03597981334980124      26.07035060068894
0.03775920847039001      26.070851742726003
0.03953860359097877      26.07151135566499
0.04309739383215629      26.07317182861782
0.04309739383215629      26.07317633507075
0.04630030504921606      26.07527648043904
0.04950321626627583      26.077713386106314
0.054342418827318925     26.08202266851905
0.05869770113225771      26.086326519569702
0.05869770113225771      26.08633314582145
0.0630529834371965       26.090999762248128
0.06740826574213528      26.09598634599542
0.07611883035201285      26.106541460403005
0.08482939496189042      26.118007502539243
0.09353995957176799      26.129762701496592
0.09353995957176799      26.12977812680857
0.10353995957176798      26.143501249481805
0.11353995957176798      26.157241420831472
0.12353995957176797      26.170919021351637
0.13353995957176798      26.184192172306965
0.143539959571768        26.197059862304762
0.143539959571768        26.197072916973674
0.153539959571768        26.20958126111943
0.163539959571768        26.221674782256827
0.17353995957176802      26.233458833390724
0.18353995957176802      26.244529909557947
0.19353995957176803      26.255054301438992
0.20353995957176804      26.265038191251346
0.20353995957176804      26.26505046394564
0.21353995957176805      26.27460398946392
0.22353995957176806      26.283715528642944
0.23353995957176807      26.29251734321488
0.24353995957176808      26.30067674769077
0.25353995957176806      26.30836694646271
0.26353995957176807      26.3156064356575
0.2735399595717681       26.322586107586044
0.2735399595717681       26.322602415420146
0.2835399595717681       26.32906190095586
0.2935399595717681       26.33518406732061
0.3035399595717681       26.34107065964446
0.3135399595717681       26.346482850721905
0.3235399595717681       26.351554749416657
0.33353995957176813      26.356304470352008
0.34353995957176814      26.360750614990334
0.35353995957176815      26.365021930327636
0.36353995957176816      26.369015196049695
0.37353995957176817      26.372764281117977
0.3835399595717682       26.376264149435027
0.3935399595717682       26.379533444271598
0.4035399595717682       26.382582954895504
0.4035399595717682       26.382587571297925
0.4135399595717682       26.385444285215506
0.4235399595717682       26.388193189820388
0.4335399595717682       26.39085084729382
0.4435399595717682       26.39330240193229
0.45353995957176824      26.395596295793627
0.46353995957176825      26.397739171801128
0.47353995957176825      26.39974180193305
0.48353995957176826      26.40161375225953
0.49353995957176827      26.40336751301105
0.5035399595717682       26.405011480394652
0.5135399595717682       26.406555700691253
0.5235399595717682       26.40800815436785
0.5335399595717683       26.409373687900654
0.5435399595717683       26.410661314813456
0.5535399595717683       26.411869733062115
0.5635399595717683       26.413008282310084
0.5735399595717683       26.414072440884947
0.5835399595717683       26.41507087086102
0.5935399595717683       26.416000595237545
0.6035399595717683       26.41686553908779
0.6135399595717683       26.417670722045308
0.6235399595717683       26.41840998308028
0.6335399595717683       26.419086211371713
0.6435399595717683       26.419709278035615
0.6535399595717684       26.42028274311135
0.6635399595717684       26.420807849819212
0.6735399595717684       26.421292181705496
0.6835399595717684       26.421727132064728
0.6935399595717684       26.422116087757075
0.7035399595717684       26.422464574229544
0.7135399595717684       26.42277703097747
0.7235399595717684       26.42305082432644
0.7335399595717684       26.42329396936006
0.7435399595717684       26.423499034977045
0.7535399595717684       26.423674482086394
0.7635399595717685       26.423818948075276
0.7735399595717685       26.423937863812924
0.7835399595717685       26.42402674387675
0.7935399595717685       26.424093474275
0.8035399595717685       26.424130382965437
0.8135399595717685       26.42414120384828
0.8235399595717685       26.42412727050111
0.8335399595717685       26.42409447903499
0.8435399595717685       26.42404027944454
0.8535399595717685       26.423971795532363
0.8635399595717685       26.423885311350535
0.8735399595717686       26.423785260409066
0.8835399595717686       26.423671839383776
0.8935399595717686       26.423549942693707
0.9035399595717686       26.423417082942127
0.9135399595717686       26.423275574869052
0.9235399595717686       26.423125919976858
0.9335399595717686       26.422969654814263
0.9435399595717686       26.42280832966061
0.9535399595717686       26.422644534003634
0.9635399595717686       26.422477062673718
0.9735399595717686       26.42230583015723
0.9835399595717687       26.42213404756983
0.9935399595717687       26.421967433327843
1.0035399595717687       26.421810507246526
1.0135399595717687       26.4216663661505
1.0235399595717687       26.42154727995241
1.0335399595717687       26.421471663341713
1.0435399595717687       26.421436788676413
1.0535399595717687       26.421448446139422
1.0635399595717687       26.42150597615612
1.0735399595717687       26.421591640887872
1.0835399595717687       26.42170966775399
1.0935399595717687       26.42186859210483
1.1035399595717688       26.422039241260954
1.1135399595717688       26.422198659856544
1.1235399595717688       26.422336500344326
1.1335399595717688       26.422448840224394
1.1435399595717688       26.422515480651075
1.1535399595717688       26.422510177427476
1.1635399595717688       26.42245292120703
1.1735399595717688       26.422351250194595
1.1835399595717688       26.422213263317374
1.1935399595717688       26.422045565449327
1.2035399595717688       26.421865535363505
1.2135399595717689       26.421676813799504
1.2235399595717689       26.421483480161186
1.2335399595717689       26.42129485507062
1.2435399595717689       26.421118363540803
1.253539959571769        26.420955639387472
1.263539959571769        26.420801930422353
1.273539959571769        26.42065826267475
1.283539959571769        26.420524927486653
1.293539959571769        26.42038914057185
1.303539959571769        26.42023635541137
1.313539959571769        26.42005938485818
1.323539959571769        26.419858188179777
1.333539959571769        26.419615943142116
1.343539959571769        26.419308650132418
1.353539959571769        26.418951701646034
1.363539959571769        26.418546677048877
1.373539959571769        26.418099545448765
1.383539959571769        26.417615358876592
1.393539959571769        26.41710130127739
1.403539959571769        26.416565769939318
1.413539959571769        26.416023227267807
1.423539959571769        26.415479895601848
1.433539959571769        26.414941193006374
1.443539959571769        26.414411183542963
1.453539959571769        26.41389176133949
1.463539959571769        26.413382420376735
1.473539959571769        26.41287988300037
1.483539959571769        26.412378686682978
1.493539959571769        26.41187111366518
1.5035399595717691       26.411343263737898
1.5135399595717691       26.410788287034325
1.5235399595717691       26.410198558446844
1.5335399595717691       26.40957961900313
1.5435399595717691       26.40889620977781
1.5535399595717692       26.40816111066268
1.5635399595717692       26.407374389169767
1.5735399595717692       26.406538912419133
1.5835399595717692       26.40565969185279
1.5935399595717692       26.404743377761836
1.6035399595717692       26.40379836765399
1.6135399595717692       26.402833956498977
1.6235399595717692       26.401859261821556
1.6335399595717692       26.400882701033286
1.6435399595717692       26.399910927273574
1.6535399595717692       26.398948327141596
1.6635399595717693       26.39799645584191
1.6735399595717693       26.397053661777583
1.6835399595717693       26.396115052705426
1.6935399595717693       26.395173213096786
1.7035399595717693       26.394218572453255
1.7135399595717693       26.393240144081282
1.7235399595717693       26.392226666549256
1.7335399595717693       26.391167212494214
1.7435399595717693       26.390052850874113
1.7535399595717693       26.38887673196805
1.7635399595717693       26.387635517139998
1.7735399595717694       26.386328857250703
1.7835399595717694       26.384959229140428
1.7935399595717694       26.383532527377298
1.8035399595717694       26.382057015301765
1.8135399595717694       26.38054452497339
1.8235399595717694       26.37900684036606
1.8335399595717694       26.377457486465175
1.8435399595717694       26.37590502882322
1.8535399595717694       26.374357326799995
1.8635399595717694       26.372819333460296
1.8735399595717694       26.371291554490455
1.8835399595717695       26.36977159560561
1.8935399595717695       26.36825021205925
1.9035399595717695       26.36672143522684
1.9135399595717695       26.365164951537622
1.9235399595717695       26.3635710138565
1.9335399595717695       26.361920992445736
1.9435399595717695       26.360207270528395
1.9535399595717695       26.35841843113903
1.9635399595717695       26.356555672858736
1.9635399595717695       26.356555016034353
1.9735399595717695       26.354905959905253
1.9835399595717695       26.353466821316136
1.9935399595717695       26.352132027381494
2.0035399595717696       26.35090735616321
2.0135399595717693       26.349676450149193
2.023539959571769        26.348370655503587
2.033539959571769        26.346929821336737
2.0435399595717687       26.34530021854051
2.0535399595717685       26.34345377954244
2.0635399595717683       26.341385221097564
2.073539959571768        26.33917992626167
2.083539959571768        26.336768754325956
2.0935399595717676       26.334182171628957
2.1035399595717674       26.331444526413712
2.113539959571767        26.328588383640085
2.123539959571767        26.325658218866202
2.133539959571767        26.322705652995122
2.1435399595717666       26.319785344964618
2.1435399595717666       26.319780007689
2.1535399595717664       26.316615740630905
2.163539959571766        26.313121805523814
2.173539959571766        26.309420056810946
2.1835399595717657       26.30545090820157
2.1935399595717655       26.30147229493423
2.2035399595717653       26.29761660148171
2.213539959571765        26.293962933069523
2.223539959571765        26.29054854939337
2.2335399595717647       26.28729654497603
2.2435399595717644       26.284294508035288
2.2435399595717644       26.284287575534744
2.2460399595717644       26.28355157265568
2.2485399595717643       26.28277787807807
2.2510399595717643       26.28193962531325
2.2540399595717644       26.28083284147244
2.2575799595717645       26.279371155872475
2.2617571595717645       26.277486357483273
2.2666862555717646       26.27507796737056
2.2725025888517645       26.2720222779409
2.2793658621221646       26.26818435387719
2.2874645245812366       26.263504876831764
2.2970209462829416       26.258048585965433
2.3070209462829414       26.25257866071832
2.317020946282941        26.247450673957125
2.317020946282941        26.247441182112038
2.327020946282941        26.24204622287398
2.3370209462829408       26.236740414397932
2.3470209462829406       26.231639035851313
2.3570209462829403       26.22707604381455
2.36702094628294         26.222848611833314
2.37702094628294         26.218827930826393
2.3870209462829397       26.214893520696762
2.3870209462829397       26.214887404764728
2.3876459462829396       26.21463616365714
2.3882709462829395       26.214382997902543
2.3888959462829393       26.21412664304676
2.3901459462829395       26.21359931846291
2.3926459462829395       26.2125302897223
2.3951459462829394       26.211502601153747
2.4001459462829393       26.209811837127955
2.405145946282939        26.20846861865231
2.415145946282939        26.206537245382563
2.425145946282939        26.204805169824358
2.4351459462829386       26.20285236681318
2.4451459462829384       26.20034681456676
2.455145946282938        26.197344962829685
2.457645946282938        26.196497451863536
2.462645946282938        26.194623897427594
2.467645946282938        26.192497609825267
2.468733446282938        26.191990903770268
2.469820946282938        26.191470070583843
2.4709084462829383       26.19093538169359
2.4719959462829384       26.190387067459145
2.4730834462829385       26.189824780201434
2.4741709462829387       26.189248209860903
2.475258446282939        26.188656573003826
2.476345946282939        26.188049405771277
2.476345946282939        26.188047860656525
2.477433446282939        26.18742163703395
2.478520946282939        26.186781136872604
2.480695946282939        26.185482164522554
2.4833059462829388       26.183920476911023
2.486385746282939        26.18204574225927
2.490019910282939        26.179638174761315
2.494308223802939        26.17633927088286
2.498039056565339        26.173085320901176
2.501769889327739        26.169485630738812
2.505500722090139        26.16562286808107
2.509231554852539        26.16155476317523
2.509231554852539        26.161552183999007
2.5129623876149387       26.157207586133044
2.5166932203773387       26.15253244856099
2.5241548859021385       26.142516336268013
2.5316165514269384       26.131403690184513
2.5316165514269384       26.131399940845487
2.541616551426938        26.116440123118757
2.551616551426938        26.102142815687774
2.551616551426938        26.102132924067522
2.561616551426938        26.08762648453729
2.561616551426938        26.087624326759098
2.5716165514269376       26.071892653831053
2.5716165514269376       26.071890206410277
2.5741165514269375       26.067858835558486
2.5766165514269375       26.06377180410454
2.5791165514269374       26.059682038240805
2.5821165514269375       26.054859180051423
2.5856565514269376       26.049355499834473
2.5898337514269376       26.043193716441227
2.5898337514269376       26.04318772633731
2.5956500847069375       26.034911844370356
2.6014664179869373       26.026751066059447
2.6014664179869373       26.02674964798112
2.611466417986937        26.00979335190554
2.611466417986937        26.009787419001448
2.621466417986937        25.991893996420455
2.621466417986937        25.991887025016272
2.6314664179869367       25.97452046625401
2.6314664179869367       25.97451537380452
2.6339664179869366       25.970165095334206
2.6364664179869366       25.96573596240281
2.6389664179869365       25.961156597949028
2.6389664179869365       25.961153283695847
2.6439664179869364       25.950989880169892
2.6489664179869363       25.9401422834886
2.6489664179869363       25.94013419505618
2.654966417986936        25.926843457373128
2.654966417986936        25.92683708793988
2.664966417986936        25.9048095557086
2.664966417986936        25.90480229425542
2.669966417986936        25.893557824267365
2.6749664179869357       25.88216698824484
2.6749664179869357       25.882159348755817
2.6774664179869356       25.876415568413027
2.6799664179869356       25.870619220312477
2.6824664179869355       25.864757618441896
2.6824664179869355       25.8647501191683
2.6874664179869354       25.852318205582765
2.6874664179869354       25.852314728307764
2.697466417986935        25.82702577148729
2.697466417986935        25.827013950551308
2.6977789179869354       25.826219946676716
2.6980914179869355       25.825424944641664
2.6984039179869357       25.82462872474658
2.6987789179869357       25.8236711208371
2.699105167986936        25.822835976901587
2.699431417986936        25.821998683209383
2.699757667986936        25.8211590774127
2.700083917986936        25.82031720407949
2.700410167986936        25.81947320295435
2.700736417986936        25.818627841716733
2.7010626679869363       25.817780862551704
2.7013889179869364       25.81693231308581
2.7017151679869365       25.81608233970563
2.7020414179869365       25.815231036689887
2.7023676679869366       25.814378348205995
2.703020167986937        25.812666714565214
2.7043251679869367       25.80919392520112
2.7046514179869368       25.808313980344344
2.7046514179869368       25.808306061286515
2.705303917986937        25.806516352424246
2.705956417986937        25.80471341801514
2.707261417986937        25.801114391249705
2.708566417986937        25.797583256977557
2.7098714179869368       25.794066492529716
2.7114374179869367       25.789688353322774
2.7114374179869367       25.78968514329401
2.713285297986937        25.783993192163035
2.715133177986937        25.77780236320648
2.715133177986937        25.77779600533421
2.717350633986937        25.769995664032052
2.7195680899869368       25.76210475219691
2.7195680899869368       25.762098124456017
2.7240030019869366       25.746111660917535
2.7240030019869366       25.746101720335748
2.7262204579869365       25.738069065878953
2.7267748219869365       25.736057557529495
2.7274400587869367       25.733642003920394
2.7282250382109368       25.730793398647595
2.729151313931257        25.727436449048668
2.729151313931257        25.72742782565803
2.7304410602442304       25.72273782605145
2.731730806557204        25.717986640404945
2.731730806557204        25.71798585429527
2.734310299183151        25.707864817108103
2.734310299183151        25.707860346618332
2.739469284435045        25.685461305273883
2.739469284435045        25.685451076482618
2.742048777060992        25.67388743267839
2.742048777060992        25.67388205569938
2.747207762312886        25.64950625335368
2.747207762312886        25.64949074432858
2.749787254938833        25.6369347286453
2.749787254938833        25.6369411942889
2.7510770012518067       25.63056878259167
2.75236674756478         25.624108450391727
2.75236674756478         25.624102544278138
2.754946240190727        25.61104030282727
2.754946240190727        25.61103356050469
2.7562359865037007       25.604496053955188
2.7575257328166742       25.597981628835765
2.7588154791296478       25.59148579829697
2.7588154791296478       25.59148045653024
2.761394971755595        25.578552626060404
2.761394971755595        25.578547728730026
2.766553957007489        25.5543564866858
2.766553957007489        25.554344917982313
2.769133449633436        25.542387312551476
2.769133449633436        25.54238494063309
2.7704231959464094       25.536380066143987
2.771712942259383        25.530302126366063
2.771712942259383        25.53029674051154
2.77235781541587         25.527233875069065
2.773002688572357        25.524147805274747
2.773647561728844        25.521037499153316
2.773647561728844        25.521030004242643
2.774292434885331        25.517891765549027
2.774937308041818        25.5147261843128
2.775582181198305        25.51153147607659
2.776356028986089        25.50765077699755
2.776356028986089        25.507659451110708
2.7774335346457995       25.502153079356905
2.77851104030551         25.496545569633234
2.77851104030551         25.496541589169855
2.7790497931353655       25.493711874447712
2.7791844813428295       25.493002643469953
2.7791918050141105       25.492964051864494
2.7791936359319305       25.492954402114222
2.779197297767571        25.49293510268831
2.779197496879884        25.49293405311626
2.7791976959921967       25.492933003538
2.7791978951045095       25.492931953952798
2.7791980942168224       25.492930904366233
2.7791982933291353       25.492929854773326
2.779198492441448        25.49292880517825
2.779198691553761        25.49292775557954
2.779198890666074        25.49292670597798
2.7791990897783867       25.492925656373576
2.7791992888906996       25.49292460676537
2.7791994880030124       25.49292355715459
2.779199886227638        25.492921457954775
2.77920068267689         25.492917259598382
2.779200855904602        25.492916346414322
2.7792008992115305       25.49291611811298
2.779200951179844        25.492915844150023
2.779201012502454        25.492915520873115
2.7792010848631343       25.492915139406865
2.7792011702487365       25.492914689276724
2.7792012710037475       25.492914158125277
2.77920138989466         25.492913531367602
2.7792014933297544       25.49291298608486
2.7792015191885278       25.492912849760824
2.779201570906075        25.492912577116943
2.779201622623622        25.492912304471176
2.7792017260587163       25.492911759185677
2.7792018501808293       25.49291110484622
2.7792019966449226       25.492910332725387
2.7792021694725526       25.492909421625907
2.779202178870055        25.49290937208356
2.7792021882675573       25.492909322540825
2.7792021976650596       25.492909272997963
2.779202207062562        25.49290922345382
2.7792022164600643       25.49290917391141
2.7792022258575666       25.49290912436736
2.779202235255069        25.492909074824546
2.7792022446525713       25.492909025280284
2.7792022540500736       25.492908975737006
2.779202263447576        25.492908926193454
2.7792022728450783       25.49290887664992
2.779202291640083        25.4929087775626
2.7792023292300922       25.492908579388736
2.7792024044101113       25.492908183047135
2.7792025547701495       25.49290739037557
2.779202855490226        25.49290580506571
2.7792032163543174       25.49290390269985
2.7792036421739454       25.492901657912764
2.779204144641106        25.492899009060775
2.779204737552356        25.492895883408263
2.7792054371876307       25.492892195124035
2.779206262757255        25.492887842927924
2.7792072369294116       25.492882707306197
2.7792072899000226       25.492882428032523
2.7792073428706336       25.492882148757666
2.7792073958412447       25.49288186948234
2.7792074488118557       25.492881590204743
2.7792075017824667       25.49288131092912
2.7792075547530777       25.49288103165107
2.7792076077236887       25.492880752373996
2.7792076606942997       25.492880473095102
2.7792077136649107       25.492880193817065
2.7792077666355217       25.492879914537912
2.7792078196061327       25.492879635259428
2.7792079255473547       25.492879076705048
2.7792081374297988       25.492877959608123
2.779208391688732        25.4928766191088
2.7792086917142726       25.49287503732296
2.779208756969828        25.49287469327113
2.779208822225383        25.492874349218294
2.779208887480938        25.49287400516605
2.7792089527364934       25.492873661111403
2.7792090179920486       25.49287331705714
2.7792090832476037       25.49287297300217
2.779209148503159        25.492872628945953
2.779209213758714        25.492872284890858
2.7792092790142693       25.49287194083362
2.7792093442698245       25.492871596777242
2.7792094095253796       25.492871252719432
2.77920954003649         25.49287056461042
2.779209696649822        25.49286973888423
2.7792098814535544       25.492868764531018
2.779210099521958        25.49286761479766
2.779210146951836        25.49286736472292
2.779210194381714        25.492867114646117
2.7792102418115916       25.49286686456976
2.7792102892414694       25.492866614493472
2.779210336671347        25.492866364416084
2.779210384101225        25.492866114338717
2.779210431531103        25.492865864260594
2.7792104789609806       25.492865614183533
2.7792105263908584       25.49286536410452
2.779210573820736        25.492865114026074
2.779210621250614        25.492864863947375
2.7792107161103696       25.492864363792467
2.779210905829881        25.492863363494585
2.7792111334932943       25.492862163151734
2.779211331560464        25.49286111884535
2.779211529627634        25.4928600745392
2.779211542006832        25.492860009266714
2.77921155438603         25.492859943994958
2.779211566765228        25.4928598787222
2.7792115791444263       25.49285981345055
2.7792115915236244       25.492859748178056
2.7792116039028225       25.49285968290566
2.7792116162820206       25.492859617633247
2.7792116286612187       25.49285955236045
2.779211641040417        25.492859487087806
2.779211665798813        25.49285935654258
2.7792117153156055       25.49285909545313
2.7792118143491904       25.492858573282113
2.77921201241636         25.49285752895864
2.7792124085507          25.492855440354564
2.7792132008193797       25.492851263220295
2.779214785356739        25.49284290907225
2.7792166868015697       25.492832883936238
2.7792171003658206       25.49283070329841
2.7792172037568834       25.49283015811379
2.779217293707108        25.492829683802434
2.7792173161946643       25.492829565222685
2.7792173611697764       25.492829328062726
2.7792174061448884       25.49282909090304
2.779217496095113        25.492828616586348
2.7792176040353826       25.492828047409635
2.779217697943417        25.492827552223645
2.7792177214204257       25.492827428423414
2.779217768374443        25.492827180826215
2.77921781532846         25.492826933229257
2.779217909236494        25.492826438038442
2.7792180219261353       25.492825843813073
2.7792181199661234       25.492825326833565
2.7792181444761206       25.492825197586225
2.7792181934961144       25.49282493909383
2.7792182425161083       25.492824680598837
2.7792183405560964       25.4928241636187
2.779218458204082        25.492823543243343
2.779218597028705        25.492822811200814
2.77921876084176         25.492821947392926
2.779218903359118        25.492821195878108
2.7792189389884574       25.4928210079942
2.7792189817436648       25.492820782532743
2.7792190321948094       25.49282051649005
2.77921909172716         25.492820202559997
2.779219161975334        25.492819832121622
2.779219244868179        25.492819395005615
2.7792192628973726       25.492819299931845
2.7792192809265663       25.4928192048557
2.77921929895576         25.492819109782722
2.7792193169849537       25.492819014707404
2.7792193350141474       25.49281891963128
2.779219353043341        25.49281882455701
2.779219371072535        25.49281872948192
2.7792193891017285       25.492818634406508
2.779219407130922        25.492818539330504
2.779219425160116        25.492818444255853
2.7792194431893096       25.492818349179768
2.7792194792476974       25.492818159028992
2.7792195513644726       25.49281777872929
2.779219695598023        25.492817018146607
2.7792199840651244       25.492815497012895
2.779220330225646        25.492813671660933
2.7792204055155594       25.492813274630365
2.779220480805473        25.492812877597906
2.779220556095386        25.49281248056662
2.7792206313852996       25.492812083533497