% Model:              first_sketch_v06__sigmasweep_adaptivemesh_179.9CA.mph
% Version:            COMSOL 5.4.0.388
% Date:               Jul 31 2021, 19:02
% Dimension:          2
% Nodes:              337
% Expressions:        9
% Description:        Entity index, r-coordinate, z-coordinate
% Length unit:        mm
% r                       z                        dom @ t=77               r (mm) @ t=77            z (mm) @ t=77            dom @ t=87               r (mm) @ t=87            z (mm) @ t=87            dom @ t=97               r (mm) @ t=97            z (mm) @ t=97
0                         0.588988626152031        1                        0                        0.588988626152031        1                        0                        0.6205079131109474       1                        0                        0.6482171827242914
0                         0.5981605712013007       1                        0                        0.5981605712013007       1                        0                        0.6301696154849653       1                        0                        0.658375717197231
0                         0.5789796848384431       1                        0                        0.5789796848384431       1                        0                        0.6099636919965825       1                        0                        0.6371319993999407
0                         0.5679368160478944       1                        0                        0.5679368160478944       1                        0                        0.5983293042917575       1                        0                        0.6249023013978522
0                         0.5557528199722687       1                        0                        0.5557528199722687       1                        0                        0.5854915932390494       1                        0                        0.6114097243551421
0                         0.5423093208574523       1                        0                        0.5423093208574523       1                        0                        0.5713256097737152       1                        0                        0.5965237006989479
0                         0.5274755411381259       1                        0                        0.5274755411381259       1                        0                        0.5556933299957061       1                        0                        0.5801001733582061
0                         0.5111070006292849       1                        0                        0.5111070006292849       1                        0                        0.5384423013342615       1                        0                        0.5619802555790117
0                         0.49304404663542384      1                        0                        0.49304404663542384      1                        0                        0.5194041209396175       1                        0                        0.541988742106029
0                         0.47311022651611895      1                        0                        0.47311022651611895      1                        0                        0.498392757681662        1                        0                        0.5199324892170311
0                         0.4511104694303843       1                        0                        0.4511104694303843       1                        0                        0.4752026937343142       1                        0                        0.49559865524565316
0                         0.42682908751256055      1                        0                        0.42682908751256055      1                        0                        0.44960688764166556      1                        0                        0.468752807979141
0                         0.4000275167587          1                        0                        0.4000275167587          1                        0                        0.42135448550909416      1                        0                        0.4391368462872238
0                         0.3704418321380117       1                        0                        0.3704418321380117       1                        0                        0.3901683099046875       1                        0                        0.40646678395739766
0                         0.33777997945966914      1                        0                        0.33777997945966914      1                        0                        0.35574205032825224      1                        0                        0.3704303335780733
0                         0.3017187502843513       1                        0                        0.3017187502843513       1                        0                        0.31773717604719737      1                        0                        0.33068433940860736
0                         0.26190054013174574      1                        0                        0.26190054013174574      1                        0                        0.2757795665442844       1                        0                        0.2868520239717911
0                         0.21793009418607862      1                        0                        0.21793009418607862      1                        0                        0.22945603705600173      1                        0                        0.2385200698553827
0                         0.16937173229571711      1                        0                        0.16937173229571711      1                        0                        0.1783112167742669       1                        0                        0.1852353362680374
0                         0.11575135232946125      1                        0                        0.11575135232946125      1                        0                        0.12184909427429515      1                        0                        0.12650347903677966
0                         0.05721590116418776      1                        0                        0.05721590116418776      1                        0                        0.06022560017382749      1                        0                        0.06249717207142199
0                         0                        1                        0                        0                        1                        0                        0                        1                        0                        0
0.046186876707387046      0                        2                        0.046186876707387046     0                        2                        0.04433109471112437      0                        2                        0.04261203284995437      0
0                         0                        2                        0                        0                        2                        0                        0                        2                        0                        0
0.08796142787400425       0                        2                        0.08796142787400425      0                        2                        0.08440410313477503      0                        2                        0.08110692785787116      0
0.1257329840407355        0                        2                        0.1257329840407355       0                        2                        0.12059957160928897      0                        2                        0.11583784460660161      0
0.15987571320971602       0                        2                        0.15987571320971602      0                        2                        0.1532712471041507       0                        2                        0.14713971185870617      0
0.19073064011948115       0                        2                        0.19073064011948115      0                        2                        0.1827453483000386       0                        2                        0.17532566986843176      0
0.21860791474350919       0                        2                        0.21860791474350919      0                        2                        0.2093210347149828       0                        2                        0.2006856391426471       0
0.2437891956353783        0                        2                        0.2437891956353783       0                        2                        0.23327161644967584      0                        2                        0.22348627491489587      0
0.2665300481336125        0                        2                        0.2665300481336125       0                        2                        0.2548461852820248       0                        2                        0.24397177346151433      0
0.28706214306991495       0                        2                        0.28706214306991495      0                        2                        0.27427126839389177      0                        2                        0.26236493284379336      0
0.3055953312327539        0                        2                        0.3055953312327539       0                        2                        0.2917525357991106       0                        2                        0.2788684663275405       0
0.3223197099141307        0                        2                        0.3223197099141307       0                        2                        0.3074765974357016       0                        2                        0.2936665167495027       0
0.33740742775267046       0                        2                        0.33740742775267046      0                        2                        0.3216126747094038       0                        2                        0.30692620792480585      0
0.35101437638686167       0                        2                        0.35101437638686167      0                        2                        0.33431410811169565      0                        2                        0.3187989624438524       0
0.3632814967854969        0                        2                        0.3632814967854969       0                        2                        0.3457196090848107       0                        2                        0.32942171800511705      0
0.3743363981031524        0                        2                        0.3743363981031524       0                        2                        0.355954784754578        0                        2                        0.33891837585654294      0
0.38429462252134217       0                        2                        0.38429462252134217      0                        2                        0.3651333507005861       0                        2                        0.34740098471469344      0
0.3932605385334375        0                        2                        0.3932605385334375       0                        2                        0.3733580095650814       0                        2                        0.35497062741164026      0
0.4013285983507218        0                        2                        0.4013285983507218       0                        2                        0.3807216251643711       0                        2                        0.3617185273101019       0
0.4085842629403792        0                        2                        0.4085842629403792       0                        2                        0.38730817298739817      0                        2                        0.3677270597249589       0
0.4151046278660599        0                        2                        0.4151046278660599       0                        2                        0.39319333114878285      0                        2                        0.37307031833045695      0
0.42095954214998815       0                        2                        0.42095954214998815      0                        2                        0.3984455584763785       0                        2                        0.3778151763175974       0
0.4262118241515347        0                        2                        0.4262118241515347       0                        2                        0.4031263487047967       0                        2                        0.3820215881350768       0
0.4309183717058045        0                        2                        0.4309183717058045       0                        2                        0.40729127882696603      0                        2                        0.3857435971446522       0
0.435130194110387         0                        2                        0.435130194110387        0                        2                        0.41099010428394295      0                        2                        0.38902949485700383      0
0.43889329532138965       0                        2                        0.43889329532138965      0                        2                        0.41426755719887415      0                        2                        0.3919225473661842       0
0.44224873858774344       0                        2                        0.44224873858774344      0                        2                        0.4171635117666241       0                        2                        0.3944612664004447       0
0.44523310213562356       0                        2                        0.44523310213562356      0                        2                        0.41971338783846635      0                        2                        0.39667976816528366      0
0.447878658815314         0                        2                        0.447878658815314        0                        2                        0.4219483661587027       0                        2                        0.3986080318338948       0
0.45021317965090685       0                        2                        0.45021317965090685      0                        2                        0.4238952901670897       0                        2                        0.40027187590618846      0
0.45225981144957295       0                        2                        0.45225981144957295      0                        2                        0.4255765397974666       0                        2                        0.4016927324789641       0
0.45403614546001253       0                        2                        0.45403614546001253      0                        2                        0.4270090318764691       0                        2                        0.40288639386210506      0
0.4555505987821322        0                        2                        0.4555505987821322       0                        2                        0.42819949884009934      0                        2                        0.4038579530195551       0
0.45678695746873105       0                        2                        0.45678695746873105      0                        2                        0.4291294579429991       0                        2                        0.40459168321160477      0
0.45762789692768946       0                        2                        0.45762789692768946      0                        2                        0.4297164663881112       0                        2                        0.40502987964052534      0
0                         1.1817788730798255       3                        0                        1.1817788730798255       3                        0                        1.1846514788414457       3                        0                        1.1874086980581169
0                         1.25                     3                        0                        1.25                     3                        0                        1.25                     3                        0                        1.25
0                         1.1200640149070666       3                        0                        1.1200640149070666       3                        0                        1.125594531932638        3                        0                        1.1308488057429942
0                         1.0641344612290033       3                        0                        1.0641344612290033       3                        0                        1.0721271357012176       3                        0                        1.0796562410106665
0                         1.013445375034621        3                        0                        1.013445375034621        3                        0                        1.0237197217871636       3                        0                        1.0333276377789307
0                         0.9675051445634346       3                        0                        0.9675051445634346       3                        0                        0.9798947386166936       3                        0                        0.9914064655183238
0                         0.9258687130737335       3                        0                        0.9258687130737335       3                        0                        0.9402195903693032       3                        0                        0.9534773489599413
0                         0.8881326717387836       3                        0                        0.8881326717387836       3                        0                        0.9043019363793188       3                        0                        0.9191624697932838
0                         0.853931143244077        3                        0                        0.853931143244077        3                        0                        0.8717857790341708       3                        0                        0.8881183216547189
0                         0.822932276030633        3                        0                        0.822932276030633        3                        0                        0.8423481916445646       3                        0                        0.8600329190624693
0                         0.794835130146606        3                        0                        0.794835130146606        3                        0                        0.8156963949713868       3                        0                        0.834623207521914
0                         0.7693668738076136       3                        0                        0.7693668738076136       3                        0                        0.7915651036926601       3                        0                        0.8116326486046632
0                         0.7462802344478378       3                        0                        0.7462802344478378       3                        0                        0.7697140904742293       3                        0                        0.7908289582094961
0                         0.7253511734087511       3                        0                        0.7253511734087511       3                        0                        0.7499259403019398       3                        0                        0.7720019872253389
0                         0.7063767483797351       3                        0                        0.7063767483797351       3                        0                        0.7320039670729683       3                        0                        0.7549617305945046
0                         0.6891731658572845       3                        0                        0.6891731658572845       3                        0                        0.7157703033067917       3                        0                        0.7395364875292183
0                         0.6735740003542762       3                        0                        0.6735740003542762       3                        0                        0.701064144662333        3                        0                        0.7255711609759542
0                         0.6594285639932084       3                        0                        0.6594285639932084       3                        0                        0.6877401354368989       3                        0                        0.7129256855502881
0                         0.6466004267494893       3                        0                        0.6466004267494893       3                        0                        0.6756669003128367       3                        0                        0.7014735945171723
0                         0.6349660679667738       3                        0                        0.6349660679667738       3                        0                        0.6647257018238797       3                        0                        0.6911007043132692
0                         0.6244136472385654       3                        0                        0.6244136472385654       3                        0                        0.6548092216942081       3                        0                        0.6817039250379523
0                         0.6148419002879114       3                        0                        0.6148419002879114       3                        0                        0.6458204587895633       3                        0                        0.6731901766938886
0                         0.6061591294085278       3                        0                        0.6061591294085278       3                        0                        0.6376717290798374       3                        0                        0.6654754123288615
0                         0.5981605712013007       3                        0                        0.5981605712013007       3                        0                        0.6301696154849653       3                        0                        0.658375717197231
0.10923444813868384       0.5921282167387887       4                        0.10923444813868384      0.5921282167387887       4                        0.1105688467341916       0.6232519342948609       4                        0.11182027387036086      0.6506599845050868
0.11759776787693585       0.5911580902059637       4                        0.11759776787693585      0.5911580902059637       4                        0.11902459786365864      0.6221409458676012       4                        0.12036378894739444      0.649421936726378
0.15095383187162512       0.5865351702301549       4                        0.15095383187162512      0.5865351702301549       4                        0.1527255549269355       0.616852526252048        4                        0.15439491349055748      0.6435329396775199
0.15926492226525077       0.5851915260934933       4                        0.15926492226525077      0.5851915260934933       4                        0.1611157589232469       0.6153172323697541       4                        0.1628616466212941       0.6418246083127775
0.14263084070663418       0.5878031559179981       4                        0.14263084070663418      0.5878031559179981       4                        0.1443204235512044       0.6183021030686724       4                        0.14591068662992263      0.6451464383991576
0.12595208348583223       0.5901141541209329       4                        0.12595208348583223      0.5901141541209329       4                        0.12746903952710786      0.6209458987069087       4                        0.12889406078363125      0.648090561093754
0.13429668137423273       0.5889959916002963       4                        0.13429668137423273      0.5889959916002963       4                        0.13590128138501137      0.6196664180972998       4                        0.13741004548000935      0.6466655164147921
0.10086283209443553       0.5930249210539456       4                        0.10086283209443553      0.5930249210539456       4                        0.1021026685494743       0.6242792126270508       4                        0.10326454873707756      0.6518050225540316
0.09248362322622916       0.593848561247807        4                        0.09248362322622916      0.593848561247807        4                        0.09362693936263623      0.6252231036344507       4                        0.09469763776318563      0.6528573460071306
0.16756328024914374       0.5837716994816491       4                        0.16756328024914374      0.5837716994816491       4                        0.16949001643238437      0.6136957567210873       4                        0.17130969987197114      0.6400210285650832
0.17584801759507732       0.5822751465565165       4                        0.17584801759507732      0.5822751465565165       4                        0.1778472487194972       0.6119876205136405       4                        0.17973782366480343      0.6381217758798172
0.050497640183513694      0.5968813566017425       4                        0.050497640183513694     0.5968813566017425       4                        0.05113489334182208      0.6287012986090914       4                        0.0517301807973805       0.6567370185400541
0.058904665212750326      0.5964186492488407       4                        0.058904665212750326     0.5964186492488407       4                        0.059645705277080005     0.6281703714066253       4                        0.06033820839556388      0.6561446142385964
0.08409752204758834       0.594599466505602        4                        0.08409752204758834      0.594599466505602        4                        0.08514253038803539      0.6260839044590364       4                        0.08612055789874494      0.6538172271317195
0.0757052274438293        0.5952779374421412       4                        0.0757052274438293       0.5952779374421412       4                        0.07665030950261102      0.6268618868804209       4                        0.07753432052511942      0.6546849154927499
0.06730740268375036       0.5958842488527284       4                        0.06730740268375036      0.5958842488527284       4                        0.06815110698055636      0.6275573003593631       4                        0.06893989698059365      0.6554606412282736
0                         0.5981605712013007       4                        0                        0.5981605712013007       4                        0                        0.6301696154849653       4                        0                        0.658375717197231
0.00841980803323673       0.5981250800384471       4                        0.00841980803323673      0.5981250800384471       4                        0.008526945672285515     0.630128867829619        4                        0.00862692574127114      0.6583302340288193
0.18411824153499368       0.5807012951634895       4                        0.18411824153499368      0.5807012951634895       4                        0.18618636991285006      0.6101923213420164       4                        0.18814475789349228      0.6361264065020124
0.19237305324233026       0.5790495442385029       4                        0.19237305324233026      0.5790495442385029       4                        0.19450628539316722      0.6083093327268551       4                        0.19652923021659188      0.6340344571887971
0.20061154624159933       0.577319263224116        4                        0.20061154624159933      0.577319263224116        4                        0.20280589012830205      0.6063381036750596       4                        0.20488995431076235      0.6318454449562642
0.20883280472846735       0.575509791498522        4                        0.20883280472846735      0.575509791498522        4                        0.21108406691985537      0.6042780582692774       4                        0.21322562804746137      0.6295588668705019
0.0420869478056951        0.5972725595844223       4                        0.0420869478056951       0.5972725595844223       4                        0.0426194540029148       0.6291502539696474       4                        0.04311673257246773      0.6572380136708311
0.033673204662810235      0.5975924176387885       4                        0.033673204662810235     0.5975924176387885       4                        0.03410016545899339      0.6295173829140573       4                        0.034498776117247734     0.6576477346264006
0.016839021558042958      0.5980185910972324       4                        0.016839021558042958     0.5980185910972324       4                        0.01705313832399048      0.6300066106364409       4                        0.017252967793647364     0.6581937711815572
0.025257024845838395      0.5978410610631473       4                        0.025257024845838395     0.5978410610631473       4                        0.02557780246966656      0.6298028043357222       4                        0.025877219301871278     0.6579662918415182
0.21703590178081528       0.5736204378229592       4                        0.21703590178081528      0.5736204378229592       4                        0.21933968454876146      0.6021285952920704       4                        0.22153493157800952      0.6271741998897257
0.225219897451509         0.5716504798120912       4                        0.225219897451509        0.5716504798120912       4                        0.2275715958129951       0.5998890878897737       4                        0.22981652533616903      0.6246909007586894
0.23338376722535373       0.5695991812689083       4                        0.23338376722535373      0.5695991812689083       4                        0.23577856558913282      0.5975589035369547       4                        0.23806897770073884      0.6221084284093584
0.24152637142477396       0.5674658030830018       4                        0.24152637142477396      0.5674658030830018       4                        0.243959240302583        0.5951374166100293       4                        0.24629073451182748      0.6194262581098515