% Model:              first_sketch_v06__sigmasweep_adaptivemesh_179.9CA.mph
% Version:            COMSOL 5.4.0.388
% Date:               Jul 31 2021, 19:02
% Dimension:          2
% Nodes:              345
% Expressions:        15
% Description:        Entity index, r-coordinate, z-coordinate
% Length unit:        mm
% r                       z                        dom @ t=107              r (mm) @ t=107           z (mm) @ t=107           dom @ t=117              r (mm) @ t=117           z (mm) @ t=117           dom @ t=127              r (mm) @ t=127           z (mm) @ t=127           dom @ t=137              r (mm) @ t=137           z (mm) @ t=137           dom @ t=147              r (mm) @ t=147           z (mm) @ t=147
0                         0                        1                        0                        0                        1                        0                        0                        1                        0                        0                        1                        0                        0                        1                        0                        0
0                         0.04306988787245118      1                        0                        0.04306988787245118      1                        0                        0.04475739266763496      1                        0                        0.04611405260964815      1                        0                        0.04713674575071886      1                        0                        0.04788767733839655
0                         0.09021612485022149      1                        0                        0.09021612485022149      1                        0                        0.09372662625658214      1                        0                        0.09656240964568193      1                        0                        0.09872376609698254      1                        0                        0.10033552273971451
0                         0.14074681317028845      1                        0                        0.14074681317028845      1                        0                        0.14616065121783917      1                        0                        0.15056824730213006      1                        0                        0.15398513933225835      1                        0                        0.15659295599630535
0                         0.19314918718009852      1                        0                        0.19314918718009852      1                        0                        0.20046844653070703      1                        0                        0.2064864402576844       1                        0                        0.21124502783248894      1                        0                        0.21497216099050048
0                         0.24510730218837723      1                        0                        0.24510730218837723      1                        0                        0.25424449601366866      1                        0                        0.2618376053259091       1                        0                        0.267959928817557        1                        0                        0.2728732060160429
0                         0.29297479119313485      1                        0                        0.29297479119313485      1                        0                        0.3037276577656103       1                        0                        0.3127532703789817       1                        0                        0.3201546096216135       1                        0                        0.3262148868885621
0                         0.3364440654089766       1                        0                        0.3364440654089766       1                        0                        0.3486192994830554       1                        0                        0.35893083125689496      1                        0                        0.3675075294493996       1                        0                        0.37464507243421025
0                         0.3759229331645522       1                        0                        0.3759229331645522       1                        0                        0.38935613836542243      1                        0                        0.40082329184868487      1                        0                        0.4104755282370903       1                        0                        0.4186148514354316
0                         0.4117804966228111       1                        0                        0.4117804966228111       1                        0                        0.42633037266982277      1                        0                        0.4388367842404214       1                        0                        0.44947018411729195      1                        0                        0.4585348149341468
0                         0.4443509864942574       1                        0                        0.4443509864942574       1                        0                        0.4598949699950876       1                        0                        0.47333641662521186      1                        0                        0.48486282774703027      1                        0                        0.4947780512343685
0                         0.4739372268955447       1                        0                        0.4739372268955447       1                        0                        0.490368247058066        1                        0                        0.5046512462516727       1                        0                        0.5169890383151078       1                        0                        0.5276834559921726
0                         0.5008137472892261       1                        0                        0.5008137472892261       1                        0                        0.5180377561381806       1                        0                        0.5330784115254992       1                        0                        0.5461524816717168       1                        0                        0.5575588580023686
0                         0.5252295516491808       1                        0                        0.5252295516491808       1                        0                        0.5431635938546352       1                        0                        0.5588866022460213       1                        0                        0.5726281948158474       1                        0                        0.5846838612553913
0                         0.5474105759459605       1                        0                        0.5474105759459605       1                        0                        0.5659812403992496       1                        0                        0.5823190130186986       1                        0                        0.5966654221504288       1                        0                        0.6093123995094231
0                         0.5675618181685166       1                        0                        0.5675618181685166       1                        0                        0.5867039653662871       1                        0                        0.6035958357438509       1                        0                        0.6184900356475953       1                        0                        0.6316749740875978
0                         0.5858694254743757       1                        0                        0.5858694254743757       1                        0                        0.6055251292318764       1                        0                        0.6229166408535881       1                        0                        0.638306883462395        1                        0                        0.6519808929607114
0                         0.6025023450237914       1                        0                        0.6025023450237914       1                        0                        0.6226199940790008       1                        0                        0.6404622525537472       1                        0                        0.6563016492675758       1                        0                        0.6704200591699365
0                         0.6176140253863944       1                        0                        0.6176140253863944       1                        0                        0.6381475591376123       1                        0                        0.6563966502572564       1                        0                        0.6726427610267893       1                        0                        0.6871648462851967
0                         0.6313437464636132       1                        0                        0.6313437464636132       1                        0                        0.6522519946972656       1                        0                        0.6708684578745127       1                        0                        0.6874828928120292       1                        0                        0.7023715823430778
0                         0.6438180862969538       1                        0                        0.6438180862969538       1                        0                        0.6650642023570897       1                        0                        0.6840125625273437       1                        0                        0.7009606103855011       1                        0                        0.7161821991176116
0                         0.6551519088211148       1                        0                        0.6551519088211148       1                        0                        0.676702872032155        1                        0                        0.6959512157462803       1                        0                        0.7132014931044821       1                        0                        0.7287253569577823
0                         0.6654495979215949       1                        0                        0.6654495979215949       1                        0                        0.6872757840771077       1                        0                        0.7067953856647998       1                        0                        0.72431951894364         1                        0                        0.740117848945118
0                         0.6748060391933517       1                        0                        0.6748060391933517       1                        0                        0.6968808449833808       1                        0                        0.7166458332635666       1                        0                        0.7344181680777917       1                        0                        0.7504657210015176
0                         0.6833851556621476       1                        0                        0.6833851556621476       1                        0                        0.705686716684465        1                        0                        0.7256758029500382       1                        0                        0.7436751933723266       1                        0                        0.7599511275855315
0.38020303429639574       0                        2                        0.38020303429639574      0                        2                        0.3611266679678611       0                        2                        0.34362462887636536      0                        2                        0.327625040497647        0                        2                        0.31296610428412197      0
0.378314568563832         0                        2                        0.378314568563832        0                        2                        0.35960992623078175      0                        2                        0.3423415854859935       0                        2                        0.32651510130920447      0                        2                        0.31199179826939893      0
0.3761592184408073        0                        2                        0.3761592184408073       0                        2                        0.35783189711740615      0                        2                        0.3408109048835555       0                        2                        0.32517130351620643      0                        2                        0.31079654660288714      0
0.3737141923191968        0                        2                        0.3737141923191968       0                        2                        0.3557737056786196       0                        2                        0.33901639231564246      0                        2                        0.3235798789836901       0                        2                        0.30936851711121754      0
0.3709754688054943        0                        2                        0.3709754688054943       0                        2                        0.35342988093058575      0                        2                        0.33695146835664563      0                        2                        0.32173373726418675      0                        2                        0.30770053724364455      0
0.3818124591985223        0                        2                        0.3818124591985223       0                        2                        0.36236321347056666      0                        2                        0.34463925766134224      0                        2                        0.3284811610226374       0                        2                        0.31370219367491714      0
0.3679208374541023        0                        2                        0.3679208374541023       0                        2                        0.350779014682025        0                        2                        0.3345951719599045       0                        2                        0.31961241181624495      0                        2                        0.3057727522031655       0
0.38300083672468394       0                        2                        0.38300083672468394      0                        2                        0.3631987984930368       0                        2                        0.3452901489088492       0                        2                        0.3290088991685277       0                        2                        0.31414009365827544      0
0.3645082862005387        0                        2                        0.3645082862005387       0                        2                        0.3477816912341674       0                        2                        0.33191010065446297      0                        2                        0.317180271533681        0                        2                        0.30355118867946645      0
0.36071906033158746       0                        2                        0.36071906033158746      0                        2                        0.3444181968394286       0                        2                        0.32887603999585147      0                        2                        0.3144168819269318       0                        2                        0.3010154369878608       0
0.35651352027016425       0                        2                        0.35651352027016425      0                        2                        0.3406500837170925       0                        2                        0.3254556914924373       0                        2                        0.3112860799082663       0                        2                        0.29813050332815694      0
0.35184483220550405       0                        2                        0.35184483220550405      0                        2                        0.33643188101750054      0                        2                        0.321604936835499        0                        2                        0.30774509591804816      0                        2                        0.29485499546990185      0
0.3466790423364183        0                        2                        0.3466790423364183       0                        2                        0.3317293640832161       0                        2                        0.31728956445570167      0                        2                        0.30375996090314433      0                        2                        0.29115538306966804      0
0.34094958780236445       0                        2                        0.34094958780236445      0                        2                        0.3264782825502495       0                        2                        0.31244746037671456      0                        2                        0.2992706329285356       0                        2                        0.28697364927666036      0
0.3346181885097207        0                        2                        0.3346181885097207       0                        2                        0.32063985418834606      0                        2                        0.3070395610840505       0                        2                        0.29423806885521836      0                        2                        0.2822710013329303       0
0.32760473009633334       0                        2                        0.32760473009633334      0                        2                        0.3141364658628305       0                        2                        0.3009905137041767       0                        2                        0.28858915611585195      0                        2                        0.27697652479899276      0
0.3198566683101496        0                        2                        0.3198566683101496       0                        2                        0.3069156114388188       0                        2                        0.2942478502798348       0                        2                        0.28227173752234874      0                        2                        0.27103856619335154      0
0.31128618552269066       0                        2                        0.31128618552269066      0                        2                        0.2988916790062184       0                        2                        0.28672786834247194      0                        2                        0.27520407746105735      0                        2                        0.264377366528892        0
0.3018155215689239        0                        2                        0.3018155215689239       0                        2                        0.2899880542393386       0                        2                        0.2783548387605301       0                        2                        0.2673115043113413       0                        2                        0.25691942575328774      0
0.291355131371856         0                        2                        0.291355131371856        0                        2                        0.28011679621770846      0                        2                        0.26904204591828096      0                        2                        0.2585086470752557       0                        2                        0.2485807998629577       0
0.27978943394871986       0                        2                        0.27978943394871986      0                        2                        0.2691650479599619       0                        2                        0.25867885714507055      0                        2                        0.24868711484681255      0                        2                        0.23925534610324137      0
0.2670195276035363        0                        2                        0.2670195276035363       0                        2                        0.25703541743301345      0                        2                        0.24716887822311995      0                        2                        0.23775160101653678      0                        2                        0.22884894986827378      0
0.25292023121043883       0                        2                        0.25292023121043883      0                        2                        0.24360538574286364      0                        2                        0.23439162213150003      0                        2                        0.22558361415647882      0                        2                        0.2172451333965326       0
0.2373393522773695        0                        2                        0.2373393522773695       0                        2                        0.22872641412728065      0                        2                        0.22020149952984827      0                        2                        0.2120403782666681       0                        2                        0.2043038865276605       0
0.22013932548117202       0                        2                        0.22013932548117202      0                        2                        0.21226371383169004      0                        2                        0.20446576320969184      0                        2                        0.1969910588983118       0                        2                        0.18989628969030023      0
0.18019474607577754       0                        2                        0.18019474607577754      0                        2                        0.17391687510527734      0                        2                        0.16770081889815192      0                        2                        0.16173005001435087      0                        2                        0.15605000453818288      0
0.15704902325506157       0                        2                        0.15704902325506157      0                        2                        0.1516423783997439       0                        2                        0.14629042012495283      0                        2                        0.14114554382922512      0                        2                        0.13624646526020961      0
0.20115267181503432       0                        2                        0.20115267181503432      0                        2                        0.1940538411285276       0                        2                        0.1870242086926358       0                        2                        0.18027843462810847      0                        2                        0.17386801159941107      0
0.13150396646547377       0                        2                        0.13150396646547377      0                        2                        0.12702504991830868      0                        2                        0.12259316346646443      0                        2                        0.11833001848242537      0                        2                        0.11426714398473009      0
0.10331250301191185       0                        2                        0.10331250301191185      0                        2                        0.09982608559093072      0                        2                        0.09637780994252614      0                        2                        0.09305918145378651      0                        2                        0.08989423633283958      0
0.07220258077987797       0                        2                        0.07220258077987797      0                        2                        0.06978382868396987      0                        2                        0.0673925521318247       0                        2                        0.06509036292411671      0                        2                        0.06289359188796353      0
0.03787481362192775       0                        2                        0.03787481362192775      0                        2                        0.03661229664461156      0                        2                        0.035364520113511634     0                        2                        0.034162969341981035     0                        2                        0.033016035805979844     0
0                         0                        2                        0                        0                        2                        0                        0                        2                        0                        0                        2                        0                        0                        2                        0                        0
0                         0.6833851556621476       3                        0                        0.6833851556621476       3                        0                        0.705686716684465        3                        0                        0.7256758029500382       3                        0                        0.7436751933723266       3                        0                        0.7599511275855315
0                         0.6918401271844247       3                        0                        0.6918401271844247       3                        0                        0.7137028923809576       3                        0                        0.7333316648957853       3                        0                        0.7510300246760052       3                        0                        0.7670475685988706
0                         0.7011170040015638       3                        0                        0.7011170040015638       3                        0                        0.7225042051743369       3                        0                        0.7417410350698762       3                        0                        0.7591109404669184       3                        0                        0.7748459550338284
0                         0.711359913292451        3                        0                        0.711359913292451        3                        0                        0.7322289871810705       3                        0                        0.7510370870118714       3                        0                        0.768046523415059        3                        0                        0.7834707562105523
0                         0.722669785759721        3                        0                        0.722669785759721        3                        0                        0.7429749750132084       3                        0                        0.7613144486238203       3                        0                        0.7779284603370814       3                        0                        0.7930109214131227
0                         0.7351581409651425       3                        0                        0.7351581409651425       3                        0                        0.7548503613327435       3                        0                        0.7726780022777301       3                        0                        0.7888584555429753       3                        0                        0.8035651701243647
0                         0.7489481906671286       3                        0                        0.7489481906671286       3                        0                        0.7679748966870541       3                        0                        0.7852439714181215       3                        0                        0.800949292458331        3                        0                        0.8152430236571143
0                         0.7641760676721628       3                        0                        0.7641760676721628       3                        0                        0.7824811340864434       3                        0                        0.7991411641374737       3                        0                        0.8143260640491132       3                        0                        0.8281660162951257
0                         0.7809921712733483       3                        0                        0.7809921712733483       3                        0                        0.798515774709323        3                        0                        0.8145123041140677       3                        0                        0.8291274763835327       3                        0                        0.8424689647192086
0                         0.7995626551666488       3                        0                        0.7995626551666488       3                        0                        0.8162411633594752       3                        0                        0.8315155161350196       3                        0                        0.8455073092806045       3                        0                        0.8583013960452754
0                         0.8200710639606178       3                        0                        0.8200710639606178       3                        0                        0.8358369247735856       3                        0                        0.8503259452498705       3                        0                        0.8636360019199522       3                        0                        0.8758290913648834
0                         0.8427201365988969       3                        0                        0.8427201365988969       3                        0                        0.8575017614946376       3                        0                        0.8711375314419596       3                        0                        0.8837023856729802       3                        0                        0.8952357671945814
0                         0.8677337894125161       3                        0                        0.8677337894125161       3                        0                        0.881455420834705        3                        0                        0.8941649418401775       3                        0                        0.9059155600431222       3                        0                        0.9167248844034136