% Model:              first_sketch_v06__sigmasweep_adaptivemesh.mph
% Version:            COMSOL 5.4.0.388
% Date:               Jul 23 2021, 18:52
% Dimension:          2
% Nodes:              282
% Expressions:        3
% Description:        Entity index, r-coordinate, z-coordinate
% Length unit:        mm
% r                       z                        dom @ t=7                r (mm) @ t=7             z (mm) @ t=7
0                         0                        1                        0                        0
0                         0.02732547870851107      1                        0                        0.02732547870851107
0                         0.052048186715932955     1                        0                        0.052048186715932955
0                         0.07441718774098514      1                        0                        0.07441718774098514
0                         0.09465726623986198      1                        0                        0.09465726623986198
0                         0.11297144534982433      1                        0                        0.11297144534982433
0                         0.12954318871348094      1                        0                        0.12954318871348094
0                         0.14453835475819493      1                        0                        0.14453835475819493
0                         0.15810693392752245      1                        0                        0.15810693392752245
0                         0.17038459964908342      1                        0                        0.17038459964908342
0                         0.18149409728892166      1                        0                        0.18149409728892166
0                         0.19154648977631414      1                        0                        0.19154648977631414
0                         0.20064227847987984      1                        0                        0.20064227847987984
0                         0.2088724128166989       1                        0                        0.2088724128166989
0.191034834999888         0                        2                        0.191034834999888        0
0.1598483478869496        0                        2                        0.1598483478869496       0
0.1286774276218015        0                        2                        0.1286774276218015       0
0.09730513450291974       0                        2                        0.09730513450291974      0
0.03157480055620889       0                        2                        0.03157480055620889      0
0                         0                        2                        0                        0
0.06428837784909945       0                        2                        0.06428837784909945      0
0.2222405261436309        0                        2                        0.2222405261436309       0
0.2534694515825629        0                        2                        0.2534694515825629       0
0.28472614150579195       0                        2                        0.28472614150579195      0
0.3160158068664399        0                        2                        0.3160158068664399       0
0.34734458266388024       0                        2                        0.34734458266388024      0
0.3787198439669347        0                        2                        0.3787198439669347       0
0.4101505188173405        0                        2                        0.4101505188173405       0
0.44164773061657486       0                        2                        0.44164773061657486      0
0.47322539379710993       0                        2                        0.47322539379710993      0
0.5049012385385078        0                        2                        0.5049012385385078       0
0.5366978603909733        0                        2                        0.5366978603909733       0
0.5686437034360989        0                        2                        0.5686437034360989       0
0.6007742387804486        0                        2                        0.6007742387804486       0
0.6331320465468998        0                        2                        0.6331320465468998       0
0.6655984488177777        0                        2                        0.6655984488177777       0
0.6960529378199538        0                        2                        0.6960529378199538       0
0.7239564283427259        0                        2                        0.7239564283427259       0
0.7495176057948175        0                        2                        0.7495176057948175       0
0.7729395586197122        0                        2                        0.7729395586197122       0
0.7944114127619538        0                        2                        0.7944114127619538       0
0.8141079887469606        0                        2                        0.8141079887469606       0
0.8321876980421918        0                        2                        0.8321876980421918       0
0.8487897391128824        0                        2                        0.8487897391128824       0
0.864029624037668         0                        2                        0.864029624037668        0
0.8779872471565354        0                        2                        0.8779872471565354       0
0.8906666659065791        0                        2                        0.8906666659065791       0
0.9017454568773561        0                        2                        0.9017454568773561       0
0.9078395246414863        0                        2                        0.9078395246414863       0
0                         0.2088724128166989       3                        0                        0.2088724128166989
0                         0.21763463721335102      3                        0                        0.21763463721335102
0                         0.22731060263600192      3                        0                        0.22731060263600192
0                         0.23800516215209466      3                        0                        0.23800516215209466
0                         0.2498259576233952       3                        0                        0.2498259576233952
0                         0.2628921083566702       3                        0                        0.2628921083566702
0                         0.27733545910861046      3                        0                        0.27733545910861046
0                         0.29330196623383303      3                        0                        0.29330196623383303
0                         0.3109532428259006       3                        0                        0.3109532428259006
0                         0.33046827473709983      3                        0                        0.33046827473709983
0                         0.352045329679879        3                        0                        0.352045329679879
0                         0.3759040771600471       3                        0                        0.3759040771600471
0                         0.4022879386212376       3                        0                        0.4022879386212376
0                         0.43146668501893887      3                        0                        0.43146668501893887
0                         0.46373929535340663      3                        0                        0.46373929535340663
0                         0.4994370826387625       3                        0                        0.4994370826387625
0                         0.5389270838834961       3                        0                        0.5389270838834961
0                         0.5826156987311578       3                        0                        0.5826156987311578
0                         0.6309525507793043       3                        0                        0.6309525507793043
0                         0.6844345433165677       3                        0                        0.6844345433165677
0                         0.7436100991735342       3                        0                        0.7436100991735342
0                         0.8090836016085485       3                        0                        0.8090836016085485
0                         0.8815202042417055       3                        0                        0.8815202042417055
0                         0.9616511579239023       3                        0                        0.9616511579239023
0                         1.0502802665271205       3                        0                        1.0502802665271205
0                         1.147847843107634        3                        0                        1.147847843107634
0                         1.25                     3                        0                        1.25
0                         0.2088724128166989       4                        0                        0.2088724128166989
0.008585465747102202      0.2088723128385775       4                        0.008585465747102202     0.2088723128385775
0.01717096719415076       0.20887201233316705      4                        0.01717096719415076      0.20887201233316705
0.025756540237459814      0.20887150966552684      4                        0.025756540237459814     0.20887150966552684
0.03434222071212192       0.20887080208991118      4                        0.03434222071212192      0.20887080208991118
0.042928044357159446      0.20886988573824028      4                        0.042928044357159446     0.20886988573824028
0.05151404718879964       0.208868755596653        4                        0.05151404718879964      0.208868755596653
0.2921438247348596        0.20867974768034472      4                        0.2921438247348596       0.20867974768034472
0.3007510857542583        0.20866210636175483      4                        0.3007510857542583       0.20866210636175483
0.283537819816123         0.20869607952968233      4                        0.283537819816123        0.20869607952968233
0.27493303515273615       0.2087111986267295       4                        0.27493303515273615      0.2087111986267295
0.23192612501204385       0.2087714953522929       4                        0.23192612501204385      0.2087714953522929
0.24052536339111844       0.20876123185270296      4                        0.24052536339111844      0.20876123185270296
0.266329434298653         0.20872519421228322      4                        0.266329434298653        0.20872519421228322
0.2491256358859704        0.20875013781467297      4                        0.2491256358859704       0.20875013781467297
0.25772698031839336       0.20873814862240686      4                        0.25772698031839336      0.20873814862240686
0.30935963797997323       0.20864305076039308      4                        0.30935963797997323      0.20864305076039308
0.3179695156068505        0.20862246729271985      4                        0.3179695156068505       0.20862246729271985
0.3265807517295384        0.20860023287414178      4                        0.3265807517295384       0.20860023287414178
0.3351933781379731        0.20857621412554164      4                        0.3351933781379731       0.20857621412554164
0.34380742508499196       0.20855026651214054      4                        0.34380742508499196      0.20855026651214054
0.3524229210140222        0.20852223340903686      4                        0.3524229210140222       0.20852223340903686
0.3610398922484128        0.20849194508726712      4                        0.3610398922484128       0.20849194508726712
0.3696583626453043        0.20845921761372047      4                        0.3696583626453043       0.20845921761372047
0.3782783531983611        0.20842385165776786      4                        0.3782783531983611       0.20842385165776786
0.3955229616744033        0.20834432211270013      4                        0.3955229616744033       0.20834432211270013
0.4041476029314958        0.20829967066910973      4                        0.4041476029314958       0.20829967066910973
0.38689988158738203       0.2083856311968567       4                        0.38689988158738203      0.2083856311968567
0.06010026517605322       0.20886740547488908      4                        0.06010026517605322      0.20886740547488908
0.06868673433824057       0.20886582796837466      4                        0.06868673433824057      0.20886582796837466
0.4127738098024362        0.20825140186177984      4                        0.4127738098024362       0.20825140186177984
0.4214015809857761        0.2081992176296527       4                        0.4214015809857761       0.2081992176296527
0.4300309086060999        0.208142794916911        4                        0.4300309086060999       0.208142794916911
0.438661777317097         0.20808178357340293      4                        0.438661777317097        0.20808178357340293
0.44729416317332144       0.2080158040819151       4                        0.44729416317332144      0.2080158040819151
0.45592803265776416       0.20794444509589893      4                        0.45592803265776416      0.20794444509589893
0.46456334126643045       0.2078672607775376       4                        0.46456334126643045      0.2078672607775376
0.47320003205780664       0.20778376791822703      4                        0.47320003205780664      0.20778376791822703
0.4818380340435291        0.20769344282616647      4                        0.4818380340435291       0.20769344282616647
0.49047726037247          0.20759571796471515      4                        0.49047726037247         0.20759571796471515
0.49911760628041313       0.20748997832439192      4                        0.49911760628041313      0.20748997832439192
0.5077589468101366        0.20737555751045636      4                        0.5077589468101366       0.20737555751045636
0.5164011342719168        0.20725173352784826      4                        0.5164011342719168       0.20725173352784826
0.5250439954288401        0.20711772424481073      4                        0.5250439954288401       0.20711772424481073
0.5336873283480292        0.2069726825171083       4                        0.5336873283480292       0.2069726825171083
0.07727349079782847       0.20886401441281877      4                        0.07727349079782847      0.20886401441281877
0.08586057077474053       0.2088619548310432       4                        0.08586057077474053      0.2088619548310432
0.09444801059389751       0.20885963787169068      4                        0.09444801059389751      0.20885963787169068
0.10303584669698461       0.20885705073941385      4                        0.10303584669698461      0.20885705073941385
0.11162411564935266       0.20885417911608936      4                        0.11162411564935266      0.20885417911608936
0.1202128541437898        0.20885100707254348      4                        0.1202128541437898       0.20885100707254348
0.12880209900626136       0.20884751697020854      4                        0.12880209900626136      0.20884751697020854
0.1373918872011754        0.20884368935206724      4                        0.1373918872011754       0.20884368935206724
0.15457324216048135       0.20883493391291977      4                        0.15457324216048135      0.20883493391291977
0.1631648835671413        0.20882995693930134      4                        0.1631648835671413       0.20882995693930134
0.1459822558354823        0.2088395028221677       4                        0.1459822558354823       0.2088395028221677
0.1717572175804597        0.2088245438390133       4                        0.1717572175804597       0.2088245438390133
0.2233278827866415        0.20878098789204563      4                        0.2233278827866415       0.20878098789204563
0.21473059866750804       0.208789764391267        4                        0.21473059866750804      0.208789764391267
0.18035028185569255       0.20881866399752647      4                        0.18035028185569255      0.20881866399752647
0.20613423457091604       0.20879787545762463      4                        0.20613423457091604      0.20879787545762463
0.18894411417248558       0.20881228405686758      4                        0.18894411417248558      0.20881228405686758
0.19753875241905297       0.2088053677068868       4                        0.19753875241905297      0.2088053677068868
0.5423308988606502        0.2068156909552713       4                        0.5423308988606502       0.2068156909552713
0.5509744366452782        0.20664575631684085      4                        0.5509744366452782       0.20664575631684085
0.559617630826079         0.20646180350907672      4                        0.559617630826079        0.20646180350907672
0.5682601250860856        0.20626266918767444      4                        0.5682601250860856       0.20626266918767444
0.5769015122910556        0.2060470949392969       4                        0.5769015122910556       0.2060470949392969
0.5855413284954087        0.20581372004217982      4                        0.5855413284954087       0.20581372004217982
0.5941790461694071        0.2055610738062115       4                        0.5941790461694071       0.2055610738062115
0.6028140666603724        0.20528756749640037      4                        0.6028140666603724       0.20528756749640037
0.6114457119112907        0.20499148585052507      4                        0.6114457119112907       0.20499148585052507
0.6200732150603158        0.20467097822546323      4                        0.6200732150603158       0.20467097822546323
0.6286957100385296        0.204324049406225        4                        0.6286957100385296       0.204324049406225
0.6373122197025863        0.20394855014992222      4                        0.6373122197025863       0.20394855014992222
0.6459216426008177        0.2035421675404148       4                        0.6459216426008177       0.2035421675404148
0.6545227379460062        0.20310241527808992      4                        0.6545227379460062       0.20310241527808992
0.6631141085292379        0.20262662406240267      4                        0.6631141085292379       0.20262662406240267
0.6716941813158102        0.20211193227045         4                        0.6716941813158102       0.20211193227045
0.6802611852248329        0.20155527720730881      4                        0.6802611852248329       0.20155527720730881
0.6888131254170141        0.20095338729402348      4                        0.6888131254170141       0.20095338729402348
0.6973477536071421        0.20030277564733562      4                        0.6973477536071421       0.20030277564733562
0.7058625333177609        0.19959973567364223      4                        0.7058625333177609       0.19959973567364223
0.7143545990561379        0.19884033946903046      4                        0.7143545990561379       0.19884033946903046
0.7228207082555281        0.1980204400428819       4                        0.7228207082555281       0.1980204400428819
0.7312571841083894        0.19713567873047458      4                        0.7312571841083894       0.19713567873047458
0.7396598469602391        0.19618149959369965      4                        0.7396598469602391       0.19618149959369965
0.7480239304222817        0.19515317331051316      4                        0.7480239304222817       0.19515317331051316
0.7563439766682716        0.1940458340447672       4                        0.7563439766682716       0.1940458340447672
0.7646137016389429        0.1928545344503914       4                        0.7646137016389429       0.1928545344503914
0.772825814622128         0.1915743267300419       4                        0.772825814622128        0.1915743267300419
0.7809717590230711        0.19020038365029818      4                        0.7809717590230711       0.19020038365029818
0.7890413031099099        0.18872818631943225      4                        0.7890413031099099       0.18872818631943225
0.7970217504932727        0.18715385013356073      4                        0.7970217504932727       0.18715385013356073
0.8048946527626047        0.18547511494689586      4                        0.8048946527626047       0.18547511494689586
0                         1.25                     5                        0                        1.25
0.09868421052631579       1.25                     5                        0.09868421052631579      1.25
0.19736842105263158       1.25                     5                        0.19736842105263158      1.25
0.29605263157894735       1.25                     5                        0.29605263157894735      1.25
0.3947368421052632        1.25                     5                        0.3947368421052632       1.25
0.493421052631579         1.25                     5                        0.493421052631579        1.25
0.5921052631578947        1.25                     5                        0.5921052631578947       1.25
0.6907894736842105        1.25                     5                        0.6907894736842105       1.25
0.7894736842105263        1.25                     5                        0.7894736842105263       1.25
0.888157894736842         1.25                     5                        0.888157894736842        1.25
0.986842105263158         1.25                     5                        0.986842105263158        1.25
1.085526315789474         1.25                     5                        1.085526315789474        1.25
1.1842105263157896        1.25                     5                        1.1842105263157896       1.25
1.2828947368421055        1.25                     5                        1.2828947368421055       1.25
1.3815789473684215        1.25                     5                        1.3815789473684215       1.25
1.4802631578947374        1.25                     5                        1.4802631578947374       1.25
1.578947368421053         1.25                     5                        1.578947368421053        1.25
1.6776315789473693        1.25                     5                        1.6776315789473693       1.25
1.7763157894736852        1.25                     5                        1.7763157894736852       1.25
1.875                     1.25                     5                        1.875                    1.25
0.9218289788837237        0.0027459523034733175    6                        0.9218289788837237       0.0027459523034733175
0.9078395246414863        0                        6                        0.9078395246414863       0
0.9298453406296412        0.006373805616040034     6                        0.9298453406296412       0.006373805616040034
0.9562915741585581        0.041089570488922346     6                        0.9562915741585581       0.041089570488922346
0.9539272626540404        0.034181084976528026     6                        0.9539272626540404       0.034181084976528026
0.9507058677593541        0.027499041390154536     6                        0.9507058677593541       0.027499041390154536
0.9466676587915351        0.021267126700815406     6                        0.9466676587915351       0.021267126700815406
0.9418330677436169        0.015597440713683236     6                        0.9418330677436169       0.015597440713683236
0.9362582840267728        0.010624340435515823     6                        0.9362582840267728       0.010624340435515823
0.9247886198319596        0                        7                        0.9247886198319596       0
0.9078395246414863        0                        7                        0.9078395246414863       0
0.9351365020644637        0                        7                        0.9351365020644637       0
0.9451634845916703        0                        7                        0.9451634845916703       0
0.9551029348891423        0                        7                        0.9551029348891423       0
0.9650261362877444        0                        7                        0.9650261362877444       0
0.9752752839335362        0                        7                        0.9752752839335362       0
0.98582658906826          0                        7                        0.98582658906826         0
0.9964962132493805        0                        7                        0.9964962132493805       0
1.0077898906542337        0                        7                        1.0077898906542337       0
1.0199635016044417        0                        7                        1.0199635016044417       0
1.0330610482771874        0                        7                        1.0330610482771874       0
1.0473091733182807        0                        7                        1.0473091733182807       0
1.063069882721833         0                        7                        1.063069882721833        0
1.0801553561848485        0                        7                        1.0801553561848485       0
1.098090530663659         0                        7                        1.098090530663659        0
1.1171718592369022        0                        7                        1.1171718592369022       0
1.137080730953814         0                        7                        1.137080730953814        0
1.1576031377939566        0                        7                        1.1576031377939566       0
1.1786683196186494        0                        7                        1.1786683196186494       0
1.2004641529763556        0                        7                        1.2004641529763556       0
1.2230609705777984        0                        7                        1.2230609705777984       0
1.2463448765320464        0                        7                        1.2463448765320464       0
1.27022056578404          0                        7                        1.27022056578404         0
1.2945348604869686        0                        7                        1.2945348604869686       0
1.3204303572630411        0                        7                        1.3204303572630411       0
1.3491222824551323        0                        7                        1.3491222824551323       0
1.3809330397995454        0                        7                        1.3809330397995454       0
1.4161824646135799        0                        7                        1.4161824646135799       0
1.4552358196084199        0                        7                        1.4552358196084199       0
1.4985131870777493        0                        7                        1.4985131870777493       0
1.5464398635683498        0                        7                        1.5464398635683498       0
1.875                     0                        7                        1.875                    0
1.7953195895615668        0                        7                        1.7953195895615668       0
1.5995096062526335        0                        7                        1.5995096062526335       0
1.723329501209108         0                        7                        1.723329501209108        0
1.6582801739760544        0                        7                        1.6582801739760544       0
0.9575399521131566        0.07309700200048774      8                        0.9575399521131566       0.07309700200048774
0.95856341082408          0.0649924925812136       8                        0.95856341082408         0.0649924925812136
0.9587151277756134        0.05686944864022172      8                        0.9587151277756134       0.05686944864022172
0.9556970606234387        0.08108864384065018      8                        0.9556970606234387       0.08108864384065018
0.9531005244196545        0.08888063985133447      8                        0.9531005244196545       0.08888063985133447
0.9498262789441755        0.09640125078657061      8                        0.9498262789441755       0.09640125078657061
0.9459557704406316        0.10359590877645987      8                        0.9459557704406316       0.10359590877645987
0.9579516358268086        0.0487997580090036       8                        0.9579516358268086       0.0487997580090036
0.9562915741585581        0.041089570488922346     8                        0.9562915741585581       0.041089570488922346
1.875                     1.25                     9                        1.875                    1.25
1.8749999999999996        1.1530811421735325       9                        1.8749999999999996       1.1530811421735325
1.8749999999999998        1.056162284347065        9                        1.8749999999999998       1.056162284347065
1.8749999999999998        0.9592434265205976       9                        1.8749999999999998       0.9592434265205976
1.8749999999999996        0.8623245686941301       9                        1.8749999999999996       0.8623245686941301
1.8749999999999998        0.7654057108676626       9                        1.8749999999999998       0.7654057108676626
1.8749999999999996        0.6684868530411952       9                        1.8749999999999996       0.6684868530411952
1.8749999999999996        0.5715679952147277       9                        1.8749999999999996       0.5715679952147277
1.8749999999999998        0.4746491373882601       9                        1.8749999999999998       0.4746491373882601
1.875                     0.3777302795617926       9                        1.875                    0.3777302795617926
1.8749999999999998        0.28081142173532514      9                        1.8749999999999998       0.28081142173532514
1.8749999999999998        0.1839078866976937       9                        1.8749999999999998       0.1839078866976937