% Model:              first_sketch_v06__sigmasweep_adaptivemesh.mph
% Version:            COMSOL 5.4.0.388
% Date:               Jul 23 2021, 18:52
% Dimension:          2
% Nodes:              312
% Expressions:        9
% Description:        Entity index, r-coordinate, z-coordinate
% Length unit:        mm
% r                       z                        dom @ t=37               r (mm) @ t=37            z (mm) @ t=37            dom @ t=47               r (mm) @ t=47            z (mm) @ t=47            dom @ t=57               r (mm) @ t=57            z (mm) @ t=57
0                         0                        1                        0                        0                        1                        0                        0                        1                        0                        0
0                         0.04682989840483586      1                        0                        0.04682989840483586      1                        0                        0.05312098725543496      1                        0                        0.05808653503010917
0                         0.08924235696792784      1                        0                        0.08924235696792784      1                        0                        0.10123412551395052      1                        0                        0.11074297685665567
0                         0.12768878052247015      1                        0                        0.12768878052247015      1                        0                        0.14485262454800168      1                        0                        0.15854992119445038
0                         0.16253943389348674      1                        0                        0.16253943389348674      1                        0                        0.18439655778026504      1                        0                        0.20196744885786358
0                         0.19413030672224818      1                        0                        0.19413030672224818      1                        0                        0.220246401848292        1                        0                        0.24140279978532503
0                         0.22276618861401404      1                        0                        0.22276618861401404      1                        0                        0.25274697527383916      1                        0                        0.2772204794631692
0                         0.2487234838534868       1                        0                        0.2487234838534868       1                        0                        0.2822108727848415       1                        0                        0.30974933574154556
0                         0.27225280285750014      1                        0                        0.27225280285750014      1                        0                        0.30892153303945574      1                        0                        0.33928752300214776
0                         0.29358133699861955      1                        0                        0.29358133699861955      1                        0                        0.3331359848845522       1                        0                        0.3661061393868605
0                         0.31291502833047663      1                        0                        0.31291502833047663      1                        0                        0.35508731761995527      1                        0                        0.39045204227676955
0                         0.3304405465540892       1                        0                        0.3304405465540892       1                        0                        0.3749869084566127       1                        0                        0.4125501493223116
0                         0.34632708760990294      1                        0                        0.34632708760990294      1                        0                        0.3930264384493842       1                        0                        0.4326054084540921
0                         0.36072800658921167      1                        0                        0.36072800658921167      1                        0                        0.40937971732845385      1                        0                        0.45080453268500514
0                         0.3737822999185508       1                        0                        0.3737822999185508       1                        0                        0.4242043406711271       1                        0                        0.4673175653020257
0                         0.3856159510306764       1                        0                        0.3856159510306764       1                        0                        0.43764319456749246      1                        0                        0.4822993044779457
0                         0.39634314769359763      1                        0                        0.39634314769359763      1                        0                        0.44982582144952066      1                        0                        0.4958906124019844
0                         0.4060673889439026       1                        0                        0.4060673889439026       1                        0                        0.4608696619867724       1                        0                        0.5082196171795096
0                         0.41495890921796774      1                        0                        0.41495890921796774      1                        0                        0.47096797708472843      1                        0                        0.519499800521036
0.04805292362229134       0                        2                        0.04805292362229134      0                        2                        0.045582886194621294     0                        2                        0.043770688761242724     0
0                         0                        2                        0                        0                        2                        0                        0                        2                        0                        0
0.09792633624123895       0                        2                        0.09792633624123895      0                        2                        0.0928625487112471       0                        2                        0.08912686715440113      0
0.1485346334380492        0                        2                        0.1485346334380492       0                        2                        0.14077531614596744      0                        2                        0.1349981830572626       0
0.19628201381607085       0                        2                        0.19628201381607085      0                        2                        0.18589059699956587      0                        2                        0.17806349490607987      0
0.2396036705534779        0                        2                        0.2396036705534779       0                        2                        0.22672062023378461      0                        2                        0.21689067804337672      0
0.576210407835474         0                        2                        0.576210407835474        0                        2                        0.5347578586173318       0                        2                        0.49911463579849885      0
0.56834192670701          0                        2                        0.56834192670701         0                        2                        0.5280567723226377       0                        2                        0.4934149437989331       0
0.5833160731851327        0                        2                        0.5833160731851327       0                        2                        0.5407403086916762       0                        2                        0.5041580733104982       0
0.5897312239851865        0                        2                        0.5897312239851865       0                        2                        0.5460735085257821       0                        2                        0.508612223848599        0
0.595518253032278         0                        2                        0.595518253032278        0                        2                        0.5508175029221022       0                        2                        0.5125349807029544       0
0.6007354034950317        0                        2                        0.6007354034950317       0                        2                        0.5550278917085463       0                        2                        0.5159794413262876       0
0.6054322694000702        0                        2                        0.6054322694000702       0                        2                        0.5587521523318456       0                        2                        0.5189909057141022       0
0.6096551848853489        0                        2                        0.6096551848853489       0                        2                        0.5620341781088438       0                        2                        0.5216109184035822       0
0.6134414762551671        0                        2                        0.6134414762551671       0                        2                        0.5649095933400193       0                        2                        0.5238733079189553       0
0.278810003584627         0                        2                        0.278810003584627        0                        2                        0.26356327661979645      0                        2                        0.25177293726677463      0
0.3142911916744685        0                        2                        0.3142911916744685       0                        2                        0.29679548424546487      0                        2                        0.2830846294192853       0
0.3464002821708899        0                        2                        0.3464002821708899       0                        2                        0.3267607408834939       0                        2                        0.31117085914082665      0
0.5596336886324248        0                        2                        0.5596336886324248       0                        2                        0.520562666338711        0                        2                        0.48698644703305655      0
0.3754560914668212        0                        2                        0.3754560914668212       0                        2                        0.35377064752866055      0                        2                        0.336346999870441        0
0.40174802934991755       0                        2                        0.40174802934991755      0                        2                        0.378108751021751        0                        2                        0.3589012197118667       0
0.42553833763784144       0                        2                        0.42553833763784144      0                        2                        0.40003222674352545      0                        2                        0.3790953486910059       0
0.5499975807028165        0                        2                        0.5499975807028165       0                        2                        0.5121905165395557       0                        2                        0.4797460551424233       0
0.4470639212170127        0                        2                        0.4470639212170127       0                        2                        0.4197734325101452       0                        2                        0.39716602185260474      0
0.5393378439572128        0                        2                        0.5393378439572128       0                        2                        0.5028475577600966       0                        2                        0.4716024154086706       0
0.5275484863229433        0                        2                        0.5275484863229433       0                        2                        0.4924309604720243       0                        2                        0.46245373919659477      0
0.4665392188135149        0                        2                        0.4665392188135149       0                        2                        0.4375425656172508       0                        2                        0.413327076516484        0
0.4841573780954331        0                        2                        0.4841573780954331       0                        2                        0.45352882408169765      0                        2                        0.42777067777770755      0
0.5000946935588059        0                        2                        0.5000946935588059       0                        2                        0.46790452406478633      0                        2                        0.44067112161145366      0
0.514510524434101         0                        2                        0.514510524434101        0                        2                        0.4808252383617151       0                        2                        0.4521852778085129       0
0.6168247045656428        0                        2                        0.6168247045656428       0                        2                        0.5674101722789551       0                        2                        0.525808016656311        0
0.6198290741206597        0                        2                        0.6198290741206597       0                        2                        0.5695589120962261       0                        2                        0.5274358830331685       0
0.6224666738923311        0                        2                        0.6224666738923311       0                        2                        0.5713649737436642       0                        2                        0.5287627384411718       0
0.6247239767817403        0                        2                        0.6247239767817403       0                        2                        0.5728029532405059       0                        2                        0.5297677707884446       0
0.6264164825734697        0                        2                        0.6264164825734697       0                        2                        0.5737450951971705       0                        2                        0.530375208084441        0
0                         0.41495890921796774      3                        0                        0.41495890921796774      3                        0                        0.47096797708472843      3                        0                        0.519499800521036
0                         0.423623187974519        3                        0                        0.423623187974519        3                        0                        0.47889802450554686      3                        0                        0.5267961436835773
0                         0.43320384364214104      3                        0                        0.43320384364214104      3                        0                        0.4876717355214121       3                        0                        0.5348749882229086
0                         0.44379791676132896      3                        0                        0.44379791676132896      3                        0                        0.49737951044298034      3                        0                        0.5438214016333047
0                         0.4555127554156527       3                        0                        0.4555127554156527       3                        0                        0.508121567997202        3                        0                        0.5537298922280467
0                         0.46846711464842716      3                        0                        0.46846711464842716      3                        0                        0.5200090402424832       3                        0                        0.5647055020499854
0                         0.48279238701858435      3                        0                        0.48279238701858435      3                        0                        0.5331651970515261       3                        0                        0.5768650119129736
0                         0.49863394948084017      3                        0                        0.49863394948084017      3                        0                        0.5477267989083743       3                        0                        0.5903382823070046
0                         0.5161526577502735       3                        0                        0.5161526577502735       3                        0                        0.5638456025233429       3                        0                        0.6052697375298821
0                         0.5355265178082351       3                        0                        0.5355265178082351       3                        0                        0.5816900533373035       3                        0                        0.6218200346423969
0                         0.556952513059476        3                        0                        0.556952513059476        3                        0                        0.6014471423289067       3                        0                        0.6401678860574643
0                         0.5806486404132958       3                        0                        0.5806486404132958       3                        0                        0.6233244785291154       3                        0                        0.660512086025653
0                         0.6068561546726726       3                        0                        0.6068561546726726       3                        0                        0.6475525739746912       3                        0                        0.6830737317316649
0                         0.635842048325912        3                        0                        0.635842048325912        3                        0                        0.67438736119603         3                        0                        0.7080986509482191
0                         0.6679017805495105       3                        0                        0.6679017805495105       3                        0                        0.7041129512786616       3                        0                        0.7358600405460354
0                         0.7033622953624157       3                        0                        0.7033622953624157       3                        0                        0.7370446543626815       3                        0                        0.766661317382267
0                         0.7425853313012309       3                        0                        0.7425853313012309       3                        0                        0.7735322532517406       3                        0                        0.8008391620884723
0                         0.7859710723440285       3                        0                        0.7859710723440285       3                        0                        0.8139635634890858       3                        0                        0.8387667677293643
0                         0.8339621675307541       3                        0                        0.8339621675307541       3                        0                        0.8587682907683744       3                        0                        0.8808572653014239
0                         0.8870481711001024       3                        0                        0.8870481711001024       3                        0                        0.9084222513895336       3                        0                        0.9275673524025861
0                         0.9457704712196838       3                        0                        0.9457704712196838       3                        0                        0.9634520709825162       3                        0                        0.9794011652120735
0                         1.0107278173294534       3                        0                        1.0107278173294534       3                        0                        1.0244406398686405       3                        0                        1.0369145892588714
0                         1.0825826671664036       3                        0                        1.0825826671664036       3                        0                        1.0920340892387221       3                        0                        1.1007207410685518
0                         1.1620685906728134       3                        0                        1.1620685906728134       3                        0                        1.1669510382518162       3                        0                        1.1714969126673789
0                         1.25                     3                        0                        1.25                     3                        0                        1.25                     3                        0                        1.25
0                         0.41495890921796774      4                        0                        0.41495890921796774      4                        0                        0.47096797708472843      4                        0                        0.519499800521036
0.008278383894126388      0.4149477433080769       4                        0.008278383894126388     0.4149477433080769       4                        0.008266534808483245     0.47095033738683306      4                        0.008389400166857075     0.5194752242754526
0.016556748212424262      0.414914230405897        4                        0.016556748212424262     0.414914230405897        4                        0.01653297565305511      0.47089740068344754      4                        0.016778554564186525     0.5194014766901276
0.024835027430749425      0.4148583274991874       4                        0.024835027430749425     0.4148583274991874       4                        0.02479918223924889      0.4708091172331692       4                        0.02516716904922014      0.5192785047922486
0.03311315743276577       0.41477996280298024      4                        0.03311315743276577      0.41477996280298024      4                        0.03306501518997185      0.4706854041388385       4                        0.03355495069709764      0.5191062204259496
0.041391075572835265      0.4146790357676285       4                        0.041391075572835265     0.4146790357676285       4                        0.041330335865032784     0.47052614538145315      4                        0.04194160598665827      0.5188845003272252
0.04966871992003101       0.414555416922738        4                        0.04966871992003101      0.414555416922738        4                        0.04959500514454738      0.4703311916863548       4                        0.05032683969615847      0.5186131860224847
0.05794602899493801       0.4144089476736314       4                        0.05794602899493801      0.4144089476736314       4                        0.05785888293933058      0.4701003603470125       4                        0.05871035410166792      0.5182920836985182
0.1654907673488595        0.4102982922056367       4                        0.1654907673488595       0.4102982922056367       4                        0.16514738282912794      0.46368908477445625      4                        0.16739293960243357      0.5094335286869048
0.1737559731729626        0.4097981375300675       4                        0.1737559731729626       0.4097981375300675       4                        0.17338302822487484      0.46291741154200977      4                        0.1757169658599363       0.5083748722307718
0.18201954074254556       0.4092690060937328       4                        0.18201954074254556      0.4092690060937328       4                        0.18161502648852493      0.462102915526166        4                        0.18403362513369698      0.5072591785497669
0.19028132754020516       0.4087102152499858       4                        0.19028132754020516      0.4087102152499858       4                        0.18984309147243178      0.4612448363627565       4                        0.1923424006446543       0.5060856684399516
0.06622294147044583       0.4142394400563545       4                        0.06622294147044583      0.4142394400563545       4                        0.06612182767539905      0.46983343501507063      4                        0.06709184800725743      0.5179209640587886
0.09932538008876494       0.4133262217076539       4                        0.09932538008876494      0.4133262217076539       4                        0.09916135061996811      0.46839927539683074      4                        0.10059141423652497      0.5159304754822661
0.10759936507353017       0.4130376527637199       4                        0.10759936507353017      0.4130376527637199       4                        0.10741740243144181      0.46794743937055383      4                        0.10895809235074332      0.5153045763694526
0.09105067922296271       0.41359036058720594      4                        0.09105067922296271      0.41359036058720594      4                        0.0909036096766687       0.46881342183242836      4                        0.09222112058645641      0.516504672694533
0.07449939572316966       0.41404667645475157      4                        0.07449939572316966      0.41404667645475157      4                        0.07438369551822671      0.46953016546671333      4                        0.07547101568905498      0.5174995621690411
0.08277532944709481       0.4138304092761879       4                        0.08277532944709481      0.4138304092761879       4                        0.08264433967905498      0.4691902673380535       4                        0.08384754585932064      0.5170275772892201
0.24805052863334337       0.40390245849173523      4                        0.24805052863334337      0.40390245849173523      4                        0.24730229089332653      0.4539453838991045       4                        0.25023489839761476      0.4961785928835928
0.2562917298114755        0.4030769650943096       4                        0.2562917298114755       0.4030769650943096       4                        0.25548642900337715      0.4527062906844163       4                        0.25845884884429216      0.49450986296170685
0.1985411875500761        0.40812104337949273      4                        0.1985411875500761       0.40812104337949273      4                        0.19806692637849854      0.4603423728821099       4                        0.2006427573959187       0.5048535236731465
0.23980594434506977       0.404691360828653        4                        0.23980594434506977      0.404691360828653        4                        0.23911117385350789      0.4551333156299238       4                        0.24199786783011618      0.49778189420330154
0.20679897041880121       0.40750072882131927      4                        0.20679897041880121      0.40750072882131927      4                        0.20628622246138897      0.45939468231612074      4                        0.20893414050399486      0.5035618866007371
0.2315582418240821        0.4054446901305266       4                        0.2315582418240821       0.4054446901305266       4                        0.23091355599934738      0.4562711825076953       4                        0.23374853718129313      0.4993208504136959
0.2150545205633304        0.4068484687479102       4                        0.2150545205633304       0.4068484687479102       4                        0.2145006576885519       0.4584008794732318       4                        0.21721597345770843      0.5022098597614427
0.2233076815850268        0.4061634175262249       4                        0.2233076815850268       0.4061634175262249       4                        0.22270990066175772      0.4573600351917903       4                        0.22548766168949702      0.5007965045537242
0.26452927753812594       0.4022138141593503       4                        0.26452927753812594      0.4022138141593503       4                        0.26366309365197815      0.4514148922711167       4                        0.2666689122950609       0.49277457998880747
0.2727628947332813        0.4013118891354992       4                        0.2727628947332813       0.4013118891354992       4                        0.27183177205024356      0.45006999672696274      4                        0.2748642528380708       0.4909715780801178
0.2809922961610604        0.40037002170169783      4                        0.2809922961610604       0.40037002170169783      4                        0.27999193117365806      0.4486703627383994       4                        0.28304400316684647      0.4890996494597552
0.28921718808084546       0.39938698984896437      4                        0.28921718808084546      0.39938698984896437      4                        0.2881430168201921       0.4472146982026043       4                        0.2912072632720534       0.4871575437424013
0.3466297239534715        0.39123965920040454      4                        0.3466297239534715       0.39123965920040454      4                        0.3448864061143689       0.43533830535591034      4                        0.3477966343803918       0.4714861691397675
0.3548023427369949        0.3898769469684707       4                        0.3548023427369949       0.3898769469684707       4                        0.35293766992477377      0.43338239723500305      4                        0.3557868393864211       0.4689337333620729