% Model:              first_sketch_v06__sigmasweep_adaptivemesh_179.9CA.mph
% Version:            COMSOL 5.4.0.388
% Date:               Jul 31 2021, 19:02
% Dimension:          2
% Nodes:              334
% Expressions:        9
% Description:        Entity index, r-coordinate, z-coordinate
% Length unit:        mm
% r                       z                        dom @ t=47               r (mm) @ t=47            z (mm) @ t=47            dom @ t=57               r (mm) @ t=57            z (mm) @ t=57            dom @ t=67               r (mm) @ t=67            z (mm) @ t=67
0                         0.4618659801073642       1                        0                        0.4618659801073642       1                        0                        0.5094136218034607       1                        0                        0.550482113364533
0                         0.471028409449617        1                        0                        0.471028409449617        1                        0                        0.5195663044536228       1                        0                        0.5615970531176534
0                         0.45192471555222913      1                        0                        0.45192471555222913      1                        0                        0.49839973490280515      1                        0                        0.5384304690050338
0                         0.4409722857742212       1                        0                        0.4409722857742212       1                        0                        0.4862678252090442       1                        0                        0.5251629161312763
0                         0.4289056004169004       1                        0                        0.4289056004169004       1                        0                        0.47290447349495995      1                        0                        0.5105578048188908
0                         0.415611010749888        1                        0                        0.415611010749888        1                        0                        0.4581847904394147       1                        0                        0.4944815813660685
0                         0.40096322312654736      1                        0                        0.40096322312654736      1                        0                        0.44197127317030516      1                        0                        0.47678769791663345
0                         0.3848240977651424       1                        0                        0.3848240977651424       1                        0                        0.42411254734116643      1                        0                        0.4573154319621345
0                         0.36704132492078545      1                        0                        0.36704132492078545      1                        0                        0.4044419882771347       1                        0                        0.4358886174066179
0                         0.347446970400416        1                        0                        0.347446970400416        1                        0                        0.3827762100696386       1                        0                        0.4123142775508671
0                         0.3258558739739159       1                        0                        0.3258558739739159       1                        0                        0.35891340314948056      1                        0                        0.3863811417241967
0                         0.3020638932552122       1                        0                        0.3020638932552122       1                        0                        0.3326315020878648       1                        0                        0.35785801636859177
0                         0.27584599023169737      1                        0                        0.27584599023169737      1                        0                        0.30368616285875055      1                        0                        0.32649196006441733
0                         0.24695415462630282      1                        0                        0.24695415462630282      1                        0                        0.2718085137078896       1                        0                        0.292006157283613
0                         0.21511517131985075      1                        0                        0.21511517131985075      1                        0                        0.23670262208402007      1                        0                        0.25409726346079325
0                         0.18002826120806276      1                        0                        0.18002826120806276      1                        0                        0.19804262715318205      1                        0                        0.21243185635932108
0                         0.14136264294351525      1                        0                        0.14136264294351525      1                        0                        0.15546942081227147      1                        0                        0.16664121424323863
0                         0.09875509301643473      1                        0                        0.09875509301643473      1                        0                        0.10858678797409435      1                        0                        0.11631336568215694
0                         0.05180750977212933      1                        0                        0.05180750977212933      1                        0                        0.05695650532129979      1                        0                        0.06098008058983741
0                         0                        1                        0                        0                        1                        0                        0                        1                        0                        0
0.04921068407825229       0                        2                        0.04921068407825229      0                        2                        0.04695998589807138      0                        2                        0.04508862821174885      0
0                         0                        2                        0                        0                        2                        0                        0                        2                        0                        0
0.09838523541904973       0                        2                        0.09838523541904973      0                        2                        0.09384935305202656      0                        2                        0.09006507181330888      0
0.14475919947168453       0                        2                        0.14475919947168453      0                        2                        0.1380039091161353       0                        2                        0.13234026437866755      0
0.18685877844224938       0                        2                        0.18685877844224938      0                        2                        0.17800532000395358      0                        2                        0.1705386270113754       0
0.22499663765387104       0                        2                        0.22499663765387104      0                        2                        0.21415010669389306      0                        2                        0.20494419721146273      0
0.2595423340686148        0                        2                        0.2595423340686148       0                        2                        0.24679400042755023      0                        2                        0.23590406514485376      0
0.2908275476114538        0                        2                        0.2908275476114538       0                        2                        0.27625963044198965      0                        2                        0.26373738633223853      0
0.3191505678896587        0                        2                        0.3191505678896587       0                        2                        0.30283936863529015      0                        2                        0.2887362163829108       0
0.34479903573407705       0                        2                        0.34479903573407705      0                        2                        0.32681568991282056      0                        2                        0.31118332752623923      0
0.36802352812078887       0                        2                        0.36802352812078887      0                        2                        0.34843578996815167      0                        2                        0.33132752982782576      0
0.38905129756402784       0                        2                        0.38905129756402784      0                        2                        0.36792421960632526      0                        2                        0.3493951670644125       0
0.40807532976857297       0                        2                        0.40807532976857297      0                        2                        0.3854727388994479       0                        2                        0.36558064942252666      0
0.4252936849652939        0                        2                        0.4252936849652939       0                        2                        0.4012765779327          0                        2                        0.38007980673424296      0
0.440878108178463         0                        2                        0.440878108178463        0                        2                        0.4155054019526281       0                        2                        0.3930630593291343       0
0.4549747072312951        0                        2                        0.4549747072312951       0                        2                        0.4283041638908624       0                        2                        0.4046764153983804       0
0.46772096396790014       0                        2                        0.46772096396790014      0                        2                        0.4398088122473396       0                        2                        0.4150560178005239       0
0.47925251936436736       0                        2                        0.47925251936436736      0                        2                        0.4501523652962778       0                        2                        0.4243336510729045       0
0.4896722393304847        0                        2                        0.4896722393304847       0                        2                        0.4594371847946427       0                        2                        0.4326119252217531       0
0.49908900570566456       0                        2                        0.49908900570566456      0                        2                        0.4677699659140442       0                        2                        0.4399959108391415       0
0.5075990973094553        0                        2                        0.5075990973094553       0                        2                        0.47524505381623305      0                        2                        0.44657826933293104      0
0.515277145797902         0                        2                        0.515277145797902        0                        2                        0.48193677443856914      0                        2                        0.4524327724499573       0
0.522213889024458         0                        2                        0.522213889024458        0                        2                        0.4879325131388895       0                        2                        0.4576434557487855       0
0.528462136288746         0                        2                        0.528462136288746        0                        2                        0.4932858349409612       0                        2                        0.4622638156560206       0
0.5341014156892303        0                        2                        0.5341014156892303       0                        2                        0.4980724050786488       0                        2                        0.4663655282639744       0
0.5391735013320378        0                        2                        0.5391735013320378       0                        2                        0.5023347763094532       0                        2                        0.46999082967131306      0
0.5437411803640597        0                        2                        0.5437411803640597       0                        2                        0.5061324668471723       0                        2                        0.4731956513669008       0
0.5478451604300766        0                        2                        0.5478451604300766       0                        2                        0.5095056409650711       0                        2                        0.4760187200544697       0
0.5515253306552681        0                        2                        0.5515253306552681       0                        2                        0.5124931263173141       0                        2                        0.4784970036969021       0
0.5548273184228745        0                        2                        0.5548273184228745       0                        2                        0.5151375113444914       0                        2                        0.4806698447349938       0
0.5577728299399467        0                        2                        0.5577728299399467       0                        2                        0.5174614354281479       0                        2                        0.4825595944875921       0
0.5603977686469284        0                        2                        0.5603977686469284       0                        2                        0.5194982245350778       0                        2                        0.4841968933145358       0
0.5627308144029025        0                        2                        0.5627308144029025       0                        2                        0.5212745050130554       0                        2                        0.48560620482990724      0
0.5647872782299254        0                        2                        0.5647872782299254       0                        2                        0.522805970229684        0                        2                        0.4868026301774921       0
0.5665804766829868        0                        2                        0.5665804766829868       0                        2                        0.5241058721645337       0                        2                        0.487798065601206        0
0.5681253150716121        0                        2                        0.5681253150716121       0                        2                        0.5251847864750491       0                        2                        0.48860000557960737      0
0.5694057540330095        0                        2                        0.5694057540330095       0                        2                        0.526023403608313        0                        2                        0.48919561074615675      0
0.5702979893884449        0                        2                        0.5702979893884449       0                        2                        0.5265470994274221       0                        2                        0.48953723425839973      0
0                         1.0948029094242904       3                        0                        1.0948029094242904       3                        0                        1.1030137794355455       3                        0                        1.1106850105932593
0                         1.168493299151287        3                        0                        1.168493299151287        3                        0                        1.1727509267890739       3                        0                        1.1767770335395495
0                         1.25                     3                        0                        1.25                     3                        0                        1.25                     3                        0                        1.25
0                         1.0281305162921672       3                        0                        1.0281305162921672       3                        0                        1.0400107641878418       3                        0                        1.051001752036171
0                         0.9678048962418986       3                        0                        0.9678048962418986       3                        0                        0.983091559295648        3                        0                        0.9971175850334957
0                         0.9132206526447161       3                        0                        0.9132206526447161       3                        0                        0.9316702959522143       3                        0                        0.9484785348314634
0                         0.8638304243027001       3                        0                        0.8638304243027001       3                        0                        0.8852170105454434       3                        0                        0.904580326602196
0                         0.8191388768636994       3                        0                        0.8191388768636994       3                        0                        0.8432518131704779       3                        0                        0.8649643845940647
0                         0.7786976248069661       3                        0                        0.7786976248069661       3                        0                        0.8053401061049084       3                        0                        0.8292141881413504
0                         0.7421008249386307       3                        0                        0.7421008249386307       3                        0                        0.7710885234837656       3                        0                        0.796952006351413
0                         0.7089812403239522       3                        0                        0.7089812403239522       3                        0                        0.7401412950354953       3                        0                        0.767835826057176
0                         0.6790066699545716       3                        0                        0.6790066699545716       3                        0                        0.7121769001811229       3                        0                        0.7415564035087494
0                         0.6518766937134144       3                        0                        0.6518766937134144       3                        0                        0.6869049775270475       3                        0                        0.71783446645467
0                         0.6273196938575133       3                        0                        0.6273196938575133       3                        0                        0.6640634529580666       3                        0                        0.6964180511886847
0                         0.6050901337784479       3                        0                        0.6050901337784479       3                        0                        0.6434158905530122       3                        0                        0.6770800129177004
0                         0.5849660735827313       3                        0                        0.5849660735827313       3                        0                        0.6247490481109657       3                        0                        0.6596156963003184
0                         0.5667469073257707       3                        0                        0.5667469073257707       3                        0                        0.6078706375130505       3                        0                        0.6438407840671245
0                         0.5502513077254763       3                        0                        0.5502513077254763       3                        0                        0.5926072795399159       3                        0                        0.6295893177881492
0                         0.5353153608973682       3                        0                        0.5353153608973682       3                        0                        0.5788026430363129       3                        0                        0.6167118892694977
0                         0.5217908802809524       3                        0                        0.5217908802809524       3                        0                        0.5663157586764186       3                        0                        0.6050739939669342
0                         0.5095438793406437       3                        0                        0.5095438793406437       3                        0                        0.5550194909620562       3                        0                        0.5945545349626515
0                         0.49845319432886565      3                        0                        0.49845319432886565      3                        0                        0.5447991607800702       3                        0                        0.5850444716797808
0                         0.4884092427434127       3                        0                        0.4884092427434127       3                        0                        0.5355513059792711       3                        0                        0.5764456039942042
0                         0.4793129014887171       3                        0                        0.4793129014887171       3                        0                        0.5271825633375864       3                        0                        0.5686694747574215
0                         0.471028409449617        3                        0                        0.471028409449617        3                        0                        0.5195663044536228       3                        0                        0.5615970531176534
0                         0.471028409449617        4                        0                        0.471028409449617        4                        0                        0.5195663044536228       4                        0                        0.5615970531176534
0.00831616955911289       0.4710105558054664       4                        0.00831616955911289      0.4710105558054664       4                        0.008379744619088364     0.5195417832098842       4                        0.008511096979720708     0.5615658720805106
0.12466320408814863       0.46693979666115065      4                        0.12466320408814863      0.46693979666115065      4                        0.12554376650231333      0.5139742689439686       4                        0.12742161214143086      0.5545065701828844
0.1329616742115897        0.46636513827150783      4                        0.1329616742115897       0.46636513827150783      4                        0.13388985561495345      0.5131920050163495       4                        0.1358789116170971       0.5535179003052433
0.14125755755987554       0.4657503613176684       4                        0.14125755755987554      0.4657503613176684       4                        0.1422311270731658       0.5123561154034753       4                        0.14432859343222235      0.5524623141238565
0.14955064754487807       0.4650948837237818       4                        0.14955064754487807      0.4650948837237818       4                        0.15056720804815066      0.5114660007712416       4                        0.15277008045891655      0.5513392220286721
0.11636234911299712       0.46747488013293564      4                        0.11636234911299712      0.46747488013293564      4                        0.11719322325906786      0.5147034679742698       4                        0.11895725784892663      0.5554288765705255
0.10805930561624613       0.4679708946360428       4                        0.10805930561624613      0.4679708946360428       4                        0.10883857948526182      0.5153801249437794       4                        0.11048639698193785      0.5562853358973812
0.09975426528491316       0.4684283089678454       4                        0.09975426528491316      0.4684283089678454       4                        0.10048018011973621      0.5160047251092864       4                        0.1020095647651218       0.5570764283648142
0.09144741605651005       0.4688475552898423       4                        0.09144741605651005      0.4688475552898423       4                        0.09211836263914337      0.5165777165092523       4                        0.09352728492571216      0.55780259811492
0.08313894296858099       0.46922902961335805      4                        0.08313894296858099      0.46922902961335805      4                        0.08375345821311578      0.5170995103125012       4                        0.08504007117422287      0.558464253406963
0.016632207849063486      0.47095697714274404      4                        0.016632207849063486     0.47095697714274404      4                        0.016759230846373357     0.5194682008654118       4                        0.017021774345323447     0.5614723102488242
0.15784072476491326       0.464398084945531        4                        0.15784072476491326      0.464398084945531        4                        0.1588977079035298       0.5105210236166586       4                        0.16120277237203184      0.550147998453714
0.16612751060965922       0.46365930962159385      4                        0.16612751060965922      0.46365930962159385      4                        0.1672221712783589       0.509520513666408        4                        0.16962599788469213      0.5488879890607308
0.02494797495620509       0.4708676229313323       4                        0.02494797495620509      0.4708676229313323       4                        0.025138190788533278     0.5193455044821109       4                        0.025531601768683763     0.5613163145429072
0.0748290289697598        0.4695730922549019       4                        0.0748290289697598       0.4695730922549019       4                        0.07538579282384422      0.5175704811532984       4                        0.07654842864721248      0.5590617668005827
0.0665178461093915        0.4698800685940765       4                        0.0665178461093915       0.4698800685940765       4                        0.06701567868251813      0.5179909679092533       4                        0.0680528454879348       0.5595954759251645
0.033263331674058025      0.4707424086341089       4                        0.033263331674058025     0.4707424086341089       4                        0.033516357168921845     0.5191736055176231       4                        0.034040149602216505     0.5610977962010434
0.058205539021741956      0.47015024978001907      4                        0.058205539021741956     0.47015024978001907      4                        0.05864339785197708      0.518361274437931        4                        0.0595537765189622       0.5600656842195424
0.04989225496399197       0.4703838917511715       4                        0.04989225496399197      0.4703838917511715       4                        0.050269232818961264     0.5186816680238354       4                        0.0510516745890401       0.5604726587850246
0.0415781384910773        0.4705812157636582       4                        0.0415781384910773       0.4705812157636582       4                        0.0418934613790222       0.5189523799193765       4                        0.04254698564926643      0.56081663091917
0.17441071392807367       0.4628778635965819       4                        0.17441071392807367      0.4628778635965819       4                        0.17554012471172312      0.5084637629466086       4                        0.1780390617050155       0.5475585049162992
0.18269003840359394       0.4620530124729983       4                        0.18269003840359394      0.4620530124729983       4                        0.18385108373492348      0.5073500243344122       4                        0.18644125142457105      0.5461588211023514
0.19096518146239333       0.46118398077000927      4                        0.19096518146239333      0.46118398077000927      4                        0.19215455144861135      0.5061785109699743       4                        0.19483183579065827      0.5446881764418973
0.19923583310331905       0.46026995104624896      4                        0.19923583310331905      0.46026995104624896      4                        0.20045001701045076      0.5049483956579647       4                        0.20321006288651727      0.5431457732433996
0.20750167461976388       0.45931006298950755      4                        0.20750167461976388      0.45931006298950755      4                        0.20873695400791786      0.5036588102636516       4                        0.21157515819641481      0.5415307770712102
0.21576237720023497       0.45830341247533524      4                        0.21576237720023497      0.45830341247533524      4                        0.21701481871073816      0.5023088451067251       4                        0.21992632255680256      0.5398423165461971
0.2240176057368851        0.45724904989892684      4                        0.2240176057368851       0.45724904989892684      4                        0.22528305353427167      0.5008975474249039       4                        0.22826273536747835      0.5380794820194237