% Model:              first_sketch_v06__sigmasweep_adaptivemesh.mph
% Version:            COMSOL 5.4.0.388
% Date:               Jul 23 2021, 18:52
% Dimension:          2
% Nodes:              359
% Expressions:        27
% Description:        Entity index, r-coordinate, z-coordinate
% Length unit:        mm
% r                       z                        dom @ t=157              r (mm) @ t=157           z (mm) @ t=157           dom @ t=167              r (mm) @ t=167           z (mm) @ t=167           dom @ t=177              r (mm) @ t=177           z (mm) @ t=177           dom @ t=187              r (mm) @ t=187           z (mm) @ t=187           dom @ t=197              r (mm) @ t=197           z (mm) @ t=197           dom @ t=207              r (mm) @ t=207           z (mm) @ t=207           dom @ t=217              r (mm) @ t=217           z (mm) @ t=217           dom @ t=227              r (mm) @ t=227           z (mm) @ t=227           dom @ t=237              r (mm) @ t=237           z (mm) @ t=237
0                         0.7658234517772624       1                        0                        0.7658234517772624       1                        0                        0.7791634329323088       1                        0                        0.7913506276723133       1                        0                        0.8025139817872631       1                        0                        0.8127656310519026       1                        0                        0.8222031132564602       1                        0                        0.8309112235343669       1                        0                        0.8389642017999043       1                        0                        0.846426896298875
0                         0.7746117078831882       1                        0                        0.7746117078831882       1                        0                        0.7880646448112086       1                        0                        0.800356921940436        1                        0                        0.8116217263150434       1                        0                        0.8219730657598684       1                        0                        0.8315091066230113       1                        0                        0.840314703649353        1                        0                        0.8484639192073526       1                        0                        0.8560213340520682
0                         0.7561464108319809       1                        0                        0.7561464108319809       1                        0                        0.7693612398828114       1                        0                        0.7814320407547282       1                        0                        0.7924831042548803       1                        0                        0.8026244923307561       1                        0                        0.8119530376863979       1                        0                        0.8205534621322524       1                        0                        0.8285001968227308       1                        0                        0.8358583812338378
0                         0.745453714517831        1                        0                        0.745453714517831        1                        0                        0.7585293270581716       1                        0                        0.7704706908777798       1                        0                        0.7813969687071327       1                        0                        0.791415917910732        1                        0                        0.8006235791461164       1                        0                        0.8091045860042366       1                        0                        0.816933577127734        1                        0                        0.8241760105247876
0                         0.7336387575612553       1                        0                        0.7336387575612553       1                        0                        0.7465594225605314       1                        0                        0.7583567625282944       1                        0                        0.7691442888056828       1                        0                        0.7790271987358955       1                        0                        0.7881006454349448       1                        0                        0.7964491588639048       1                        0                        0.8041476039093569       1                        0                        0.811261787452313
0                         0.7205837348745113       1                        0                        0.7205837348745113       1                        0                        0.7333318407506837       1                        0                        0.7449688283339003       1                        0                        0.7556019774864334       1                        0                        0.7653336430858476       1                        0                        0.7742579866236718       1                        0                        0.7824594192271127       1                        0                        0.7900130540199436       1                        0                        0.7969850805887381
0                         0.70615849157697         1                        0                        0.70615849157697         1                        0                        0.7187143009143375       1                        0                        0.7301726392260504       1                        0                        0.7406339102825994       1                        0                        0.7501973145057951       1                        0                        0.7589559092526169       1                        0                        0.766993972789106        1                        0                        0.7743868925708394       1                        0                        0.7812012786681143
0                         0.6902191994338231       1                        0                        0.6902191994338231       1                        0                        0.7025605663911155       1                        0                        0.7138197300853035       1                        0                        0.7240894998438274       1                        0                        0.7334655772792181       1                        0                        0.7420397950810267       1                        0                        0.7498962870344951       1                        0                        0.757110746082282        1                        0                        0.7637502448796453
0                         0.6726069243503179       1                        0                        0.6726069243503179       1                        0                        0.6847089675758083       1                        0                        0.6957459034790574       1                        0                        0.7058021438521066       1                        0                        0.7149695115964303       1                        0                        0.7233384868361188       1                        0                        0.7309930511343965       1                        0                        0.7380092401094052       1                        0                        0.7444546356040675
0                         0.6531460595658988       1                        0                        0.6531460595658988       1                        0                        0.6649807811305961       1                        0                        0.6757695623577595       1                        0                        0.6855875166686334       1                        0                        0.6945221690856218       1                        0                        0.7026625126979414       1                        0                        0.7100923745283136       1                        0                        0.7168881768493905       1                        0                        0.7231180615204803
0                         0.6316425439880478       1                        0                        0.6316425439880478       1                        0                        0.6431783801387664       1                        0                        0.6536898028453214       1                        0                        0.6632416132380908       1                        0                        0.6719165754999888       1                        0                        0.679802055365894        1                        0                        0.6869817297656076       1                        0                        0.6935324585918429       1                        0                        0.6995229976811218
0                         0.6078819522648274       1                        0                        0.6078819522648274       1                        0                        0.6190832383778708       1                        0                        0.629284348465715        1                        0                        0.6385386267181573       1                        0                        0.6469235639863399       1                        0                        0.6545247526328565       1                        0                        0.661425731246782        1                        0                        0.6677038542716351       1                        0                        0.6734285460790894
0                         0.5816273265206455       1                        0                        0.5816273265206455       1                        0                        0.5924536481810428       1                        0                        0.6023071774265154       1                        0                        0.6112285063676651       1                        0                        0.61928928284899         1                        0                        0.6265731728437439       1                        0                        0.6331635943894945       1                        0                        0.6391384561258506       1                        0                        0.6445679012288238
0                         0.5526168274132934       1                        0                        0.5526168274132934       1                        0                        0.5630222172354864       1                        0                        0.5724858997303173       1                        0                        0.5810342485322314       1                        0                        0.5887324309706422       1                        0                        0.5956620222575169       1                        0                        0.601906338890468        1                        0                        0.6075438989364539       1                        0                        0.6126456017080727
0                         0.5205610994729465       1                        0                        0.5205610994729465       1                        0                        0.53049301609707         1                        0                        0.5395187384632938       1                        0                        0.5476487650144923       1                        0                        0.5549410617826046       1                        0                        0.5614749272921449       1                        0                        0.5673335855022043       1                        0                        0.5725962011526966       1                        0                        0.5773344395677685
0                         0.4851403724750291       1                        0                        0.4851403724750291       1                        0                        0.4945383610619646       1                        0                        0.5030710708209307       1                        0                        0.5107312682092057       1                        0                        0.5175688912843796       1                        0                        0.5236607336013401       1                        0                        0.529089903072321        1                        0                        0.5339362061372873       1                        0                        0.5382720327154107
0                         0.44600124497942295      1                        0                        0.44600124497942295      1                        0                        0.45479510145070146      1                        0                        0.46277133462040265      1                        0                        0.46990293877863415      1                        0                        0.47623085827306333      1                        0                        0.4818290714796379       1                        0                        0.4867804722715299       1                        0                        0.49116541964472815      1                        0                        0.4950568964437656
0                         0.40275311540815706      1                        0                        0.40275311540815706      1                        0                        0.41086025378169494      1                        0                        0.418206035146454        1                        0                        0.4247415457830109       1                        0                        0.43049758627528995      1                        0                        0.43554485557531875      1                        0                        0.4399657848848175       1                        0                        0.4438410397772393       1                        0                        0.4472439089866833
0                         0.35496537170469983      1                        0                        0.35496537170469983      1                        0                        0.36228691658538165      1                        0                        0.3689146075088655       1                        0                        0.37477566714838684      1                        0                        0.3798893747971217       1                        0                        0.38432240748918606      1                        0                        0.38815619804758034      1                        0                        0.39147118717970586      1                        0                        0.39434041309397455
0                         0.3023660591641936       1                        0                        0.3023660591641936       1                        0                        0.308783861378512        1                        0                        0.31458994117278827      1                        0                        0.3196867455919475       1                        0                        0.32408047875119567      1                        0                        0.32783256812207706      1                        0                        0.33102236703592897      1                        0                        0.3337290274138951       1                        0                        0.3360242936550313
0                         0.2509140353479211       1                        0                        0.2509140353479211       1                        0                        0.2563995951539849       1                        0                        0.26136284580425767      1                        0                        0.26568566950918826      1                        0                        0.26936138786659164      1                        0                        0.27244506813446423      1                        0                        0.2750124764541215       1                        0                        0.2771399005441499       1                        0                        0.2788963051269176
0                         0.20311149446795354      1                        0                        0.20311149446795354      1                        0                        0.2076784466019543       1                        0                        0.21181457902309345      1                        0                        0.2153893294016476       1                        0                        0.218384853128344        1                        0                        0.22084887950387344      1                        0                        0.22285173797130367      1                        0                        0.2244648635891453       1                        0                        0.22575260434973313
0                         0.15749949575091865      1                        0                        0.15749949575091865      1                        0                        0.16113419264827306      1                        0                        0.16443197823026742      1                        0                        0.16726104945925846      1                        0                        0.1695954238100181       1                        0                        0.17147438026780448      1                        0                        0.1729602585659162       1                        0                        0.17411685327668922      1                        0                        0.17500134514640972
0                         0.11407367627476023      1                        0                        0.11407367627476023      1                        0                        0.11676536309167652      1                        0                        0.11921330001960688      1                        0                        0.12129927539384397      1                        0                        0.12299450381994198      1                        0                        0.12432893099854528      1                        0                        0.12535365734018258      1                        0                        0.1261212129888079       1                        0                        0.1266783701425084
0                         0.07253411017042599      1                        0                        0.07253411017042599      1                        0                        0.07427461749778284      1                        0                        0.07586119647706605      1                        0                        0.07720585663447327      1                        0                        0.07828425014813017      1                        0                        0.07911628128405944      1                        0                        0.0797379584064565       1                        0                        0.08018632044608343      1                        0                        0.08049410020260438
0                         0.03444547154385209      1                        0                        0.03444547154385209      1                        0                        0.03528005399169617      1                        0                        0.03604202640780292      1                        0                        0.03668565926929735      1                        0                        0.037197448800598644     1                        0                        0.03758714573211884      1                        0                        0.037872984617092605     1                        0                        0.03807369155286423      1                        0                        0.038205721210206316
0                         0                        1                        0                        0                        1                        0                        0                        1                        0                        0                        1                        0                        0                        1                        0                        0                        1                        0                        0                        1                        0                        0                        1                        0                        0                        1                        0                        0
0.03020207042713694       0                        2                        0.03020207042713694      0                        2                        0.029479710435861603     0                        2                        0.02872786949164435      0                        2                        0.027970647788015147     0                        2                        0.027227132581907645     0                        2                        0.026506961411553297     0                        2                        0.02581369958369909      0                        2                        0.025148188746050053     0                        2                        0.0245101630935638       0
0                         0                        2                        0                        0                        2                        0                        0                        2                        0                        0                        2                        0                        0                        2                        0                        0                        2                        0                        0                        2                        0                        0                        2                        0                        0                        2                        0                        0
0.057594985744963564      0                        2                        0.057594985744963564     0                        2                        0.05621104678981319      0                        2                        0.05476998357579542      0                        2                        0.0533189272899163       0                        2                        0.051894739348182686     0                        2                        0.050515814487983764     0                        2                        0.049188872257422175     0                        2                        0.04791544587140839      0                        2                        0.046694971070822926     0
0.08244040689981501       0                        2                        0.08244040689981501      0                        2                        0.08044574972772683      0                        2                        0.07836743610801757      0                        2                        0.07627547185885505      0                        2                        0.07422357769246105      0                        2                        0.07223809462954349      0                        2                        0.07032846336335602      0                        2                        0.06849672175423682      0                        2                        0.06674193613980589      0
0.10497580501472795       0                        2                        0.10497580501472795      0                        2                        0.10241366862263904      0                        2                        0.0997420255077509       0                        2                        0.09705421468370969      0                        2                        0.09442011858986687      0                        2                        0.09187323312843036      0                        2                        0.08942526682665866      0                        2                        0.08707855208166608      0                        2                        0.08483169207232849      0
0.12541669170983327       0                        2                        0.12541669170983327      0                        2                        0.12232432418861924      0                        2                        0.11909708552507298      0                        2                        0.11585252475202411      0                        2                        0.11267607153403245      0                        2                        0.10960757093448811      0                        2                        0.10666052932552388      0                        2                        0.103837348891006        0                        2                        0.10113606044362695      0
0.14394149254821037       0                        2                        0.14394149254821037      0                        2                        0.14035174316504015      0                        2                        0.13660221806331463      0                        2                        0.1328358182362732       0                        2                        0.12915288247498163      0                        2                        0.1255987596552506       0                        2                        0.12218827032944589      0                        2                        0.11892365378307623      0                        2                        0.11580225001829236      0
0.16074451490972988       0                        2                        0.16074451490972988      0                        2                        0.15668576394604639      0                        2                        0.1524428311805283       0                        2                        0.14818532337069287      0                        2                        0.14402778247967113      0                        2                        0.14002017592841648      0                        2                        0.13617814925524716      0                        2                        0.1325035434062462       0                        2                        0.1289928827356582       0
0.17598753421464905       0                        2                        0.17598753421464905      0                        2                        0.17148471289377723      0                        2                        0.16677394184604674      0                        2                        0.16205300387906038      0                        2                        0.15744980484173252      0                        2                        0.15301799860067594      0                        2                        0.14877356599361932      0                        2                        0.14471771550381177      0                        2                        0.14084602773178515      0
0.1898099027016456        0                        2                        0.1898099027016456       0                        2                        0.1848851927585965       0                        2                        0.17972962327869454      0                        2                        0.17457065185283366      0                        2                        0.1695485284626609       0                        2                        0.1647196185605629       0                        2                        0.1600997554018776       0                        2                        0.15568928593841558      0                        2                        0.15148271808811026      0
0.20233789574435054       0                        2                        0.20233789574435054      0                        2                        0.19701111954886333      0                        2                        0.1914317125898433       0                        2                        0.18585825555470395      0                        2                        0.1804421140947188       0                        2                        0.17524136043910268      0                        2                        0.17027121226551575      0                        2                        0.16553093392731666      0                        2                        0.16101383261074528      0
0.2137054444939572        0                        2                        0.2137054444939572       0                        2                        0.20799370626941718      0                        2                        0.20200900484878204      0                        2                        0.1960424176941606       0                        2                        0.1902549898555348       0                        2                        0.18470548355418323      0                        2                        0.1794080528679452       0                        2                        0.1743606659902904       0                        2                        0.1695553009850246       0
0.22401199562611698       0                        2                        0.22401199562611698      0                        2                        0.2179306619257388       0                        2                        0.21155786695517761      0                        2                        0.20521834329542107      0                        2                        0.1990811446300525       0                        2                        0.1932047091000649       0                        2                        0.1876017051751581       0                        2                        0.182268601383604        0                        2                        0.1771959207525955       0