% Model:              first_sketch_v06__sigmasweep_adaptivemesh_179.9CA.mph
% Version:            COMSOL 5.4.0.388
% Date:               Jul 31 2021, 19:02
% Dimension:          2
% Nodes:              371
% Expressions:        15
% Description:        Entity index, r-coordinate, z-coordinate
% Length unit:        mm
% r                       z                        dom @ t=237              r (mm) @ t=237           z (mm) @ t=237           dom @ t=247              r (mm) @ t=247           z (mm) @ t=247           dom @ t=257              r (mm) @ t=257           z (mm) @ t=257           dom @ t=267              r (mm) @ t=267           z (mm) @ t=267           dom @ t=277              r (mm) @ t=277           z (mm) @ t=277
0                         0.8475268383856293       1                        0                        0.8475268383856293       1                        0                        0.8545012009875722       1                        0                        0.8609933595488831       1                        0                        0.8670465272998117       1                        0                        0.8726994790546011
0                         0.8561550410145035       1                        0                        0.8561550410145035       1                        0                        0.8631792852585186       1                        0                        0.8697184893262946       1                        0                        0.8758167183476343       1                        0                        0.8815132613189276
0                         0.8380089527232906       1                        0                        0.8380089527232906       1                        0                        0.8449279308382811       1                        0                        0.8513678705293038       1                        0                        0.8573710482903234       1                        0                        0.8629756681889107
0                         0.8275096271064681       1                        0                        0.8275096271064681       1                        0                        0.8343670867474173       1                        0                        0.8407490410858073       1                        0                        0.846696736090395        1                        0                        0.8522477422365007
0                         0.8159276384899213       1                        0                        0.8159276384899213       1                        0                        0.822716738960679        1                        0                        0.8290342767981786       1                        0                        0.8349203634595397       1                        0                        0.8404118659641033
0                         0.803151326869873        1                        0                        0.803151326869873        1                        0                        0.8098644364579475       1                        0                        0.8161103820089877       1                        0                        0.8219280247585368       1                        0                        0.8273534505322915
0                         0.7890575019272642       1                        0                        0.7890575019272642       1                        0                        0.7956861027965875       1                        0                        0.8018524453061308       1                        0                        0.8075940111440998       1                        0                        0.812946018316168
0                         0.7735102648847134       1                        0                        0.7735102648847134       1                        0                        0.7800448460544837       1                        0                        0.7861226380969342       1                        0                        0.7917795978564978       1                        0                        0.7970499787827144
0                         0.7563597022028801       1                        0                        0.7563597022028801       1                        0                        0.7627896388140504       1                        0                        0.7687688815679093       1                        0                        0.774331698225998        1                        0                        0.779511269340104
0                         0.737440419194198        1                        0                        0.737440419194198        1                        0                        0.7437538353832464       1                        0                        0.7496233485371785       1                        0                        0.7550813503866447       1                        0                        0.76015982677223
0                         0.7165699555186822       1                        0                        0.7165699555186822       1                        0                        0.7227535677424411       1                        0                        0.728500841354519        1                        0                        0.733842077603578        1                        0                        0.738807929971451
0                         0.6935470126463145       1                        0                        0.6935470126463145       1                        0                        0.6995859485974245       1                        0                        0.7051969728256281       1                        0                        0.7104080480009768       1                        0                        0.7152483387299231
0                         0.668149499301136        1                        0                        0.668149499301136        1                        0                        0.6740270856392158       1                        0                        0.6794861527829694       1                        0                        0.6845520351717861       1                        0                        0.6892522292027405
0                         0.6401323735807982       1                        0                        0.6401323735807982       1                        0                        0.6458298823752323       1                        0                        0.6511193530170944       1                        0                        0.6560231502388749       1                        0                        0.6605668948690939
0                         0.6092252521073512       1                        0                        0.6092252521073512       1                        0                        0.6147215881664311       1                        0                        0.6198216068767861       1                        0                        0.624544296436919        1                        0                        0.6289131596962354
0                         0.57512974246779         1                        0                        0.57512974246779         1                        0                        0.5804010470978722       1                        0                        0.5852891880960578       1                        0                        0.589809287073574        1                        0                        0.5939824418639208
0                         0.5375164924269719       1                        0                        0.5375164924269719       1                        0                        0.5425356159064121       1                        0                        0.5471864199937464       1                        0                        0.551479562240986        1                        0                        0.5554333902621086
0                         0.49602185731720977      1                        0                        0.49602185731720977      1                        0                        0.5007576165908624       1                        0                        0.5051419515457743       1                        0                        0.5091803178822641       1                        0                        0.5128878899723089
0                         0.45024413256005374      1                        0                        0.45024413256005374      1                        0                        0.45466020537782265      1                        0                        0.45874432849187363      1                        0                        0.4624958337288871       1                        0                        0.4659261923471881
0                         0.40152568717804266      1                        0                        0.40152568717804266      1                        0                        0.40559187140469466      1                        0                        0.4093481384283814       1                        0                        0.4127868028537274       1                        0                        0.41591511348266696
0                         0.35630770982103016      1                        0                        0.35630770982103016      1                        0                        0.3600380552430894       1                        0                        0.3634805785052781       1                        0                        0.3666205844454538       1                        0                        0.3694610925097375
0                         0.3152310383321659       1                        0                        0.3152310383321659       1                        0                        0.31864442025714934      1                        0                        0.3217918989594743       1                        0                        0.32465200974238506      1                        0                        0.32722363356687456
0                         0.2780104078051285       1                        0                        0.2780104078051285       1                        0                        0.28112391194704583      1                        0                        0.2839933507048386       1                        0                        0.2865908788772299       1                        0                        0.28891137432305
0                         0.2442398530300761       1                        0                        0.2442398530300761       1                        0                        0.24706777143558686      1                        0                        0.24967347568774995      1                        0                        0.25202330060778955      1                        0                        0.2541083152993168
0                         0.21361344224038067      1                        0                        0.21361344224038067      1                        0                        0.2161681242056557       1                        0                        0.21852241439319725      1                        0                        0.22063761687019648      1                        0                        0.22250128801986804
0                         0.18458054042626698      1                        0                        0.18458054042626698      1                        0                        0.1868604455163454       1                        0                        0.18896264190875092      1                        0                        0.19084428686604737      1                        0                        0.19248972086888402
0                         0.15293281401430325      1                        0                        0.15293281401430325      1                        0                        0.15489148819119358      1                        0                        0.15669951992372172      1                        0                        0.15831097257190507      1                        0                        0.15970716719520053
0                         0.119012519118879        1                        0                        0.119012519118879        1                        0                        0.12059621920238194      1                        0                        0.12206081093836668      1                        0                        0.12336008510273694      1                        0                        0.12447348274359293
0                         0.08490990846337701      1                        0                        0.08490990846337701      1                        0                        0.08607999986980314      1                        0                        0.08716459923180382      1                        0                        0.08812238625011523      1                        0                        0.08893364035881891
0                         0.05380445218023497      1                        0                        0.05380445218023497      1                        0                        0.05456490130133674      1                        0                        0.05527124264275574      1                        0                        0.055892722135028224     1                        0                        0.05641397991335277
0                         0.02558857624522566      1                        0                        0.02558857624522566      1                        0                        0.02595550892666054      1                        0                        0.02629678538250025      1                        0                        0.026596370291771993     1                        0                        0.026846060370639642
0                         0                        1                        0                        0                        1                        0                        0                        1                        0                        0                        1                        0                        0                        1                        0                        0
0.023163967640273876      0                        2                        0.023163967640273876     0                        2                        0.022715218129622808     0                        2                        0.022247692254629633     0                        2                        0.021772632030001245     0                        2                        0.02129966038423496      0
0                         0                        2                        0                        0                        2                        0                        0                        2                        0                        0                        2                        0                        0                        2                        0                        0
0.044111153185596295      0                        2                        0.044111153185596295     0                        2                        0.043251549470628606     0                        2                        0.042355982439495385     0                        2                        0.041446395077007384     0                        2                        0.04054132525596179      0
0.06305120222234885       0                        2                        0.06305120222234885      0                        2                        0.061811727245608954     0                        2                        0.06052044998023597      0                        2                        0.05920988439035973      0                        2                        0.05790695966569462      0
0.2221235736944951        0                        2                        0.2221235736944951       0                        2                        0.21501425924574674      0                        2                        0.20832942728646678      0                        2                        0.2020329394427753       0                        2                        0.19609275596904335      0
0.22076212439848034       0                        2                        0.22076212439848034      0                        2                        0.21391155165801323      0                        2                        0.20738113438389602      0                        2                        0.2011960285467299       0                        2                        0.1953429178750461       0
0.08017448545441759       0                        2                        0.08017448545441759      0                        2                        0.07858094572050378      0                        2                        0.0769209751540815       0                        2                        0.0752377939995893       0                        2                        0.0735662953813821       0
0.21896586612554672       0                        2                        0.21896586612554672      0                        2                        0.21236459661502283      0                        2                        0.2060000738798211       0                        2                        0.1999423394978313       0                        2                        0.19419344190061316      0
0.09565705173433724       0                        2                        0.09565705173433724      0                        2                        0.09373119037539226      0                        2                        0.09172543746514421      0                        2                        0.08969402279347823      0                        2                        0.0876794039810303       0
0.21687850971648526       0                        2                        0.21687850971648526      0                        2                        0.21051557224646847      0                        2                        0.20431814655701472      0                        2                        0.19839218121053837      0                        2                        0.19275320323503367      0
0.10965134261374025       0                        2                        0.10965134261374025      0                        2                        0.10741180089694749      0                        2                        0.1050801094800839       0                        2                        0.10272190314349297      0                        2                        0.10038677825399117      0
0.21450751022702388       0                        2                        0.21450751022702388      0                        2                        0.20837736407717183      0                        2                        0.20235112627390178      0                        2                        0.19656310193783866      0                        2                        0.19104085397390572      0
0.12229879080282051       0                        2                        0.12229879080282051      0                        2                        0.11976160684815132      0                        2                        0.11712130904649234      0                        2                        0.1144553685044801       0                        2                        0.11182003013400152      0
0.21184440812836758       0                        2                        0.21184440812836758      0                        2                        0.20594279110085115      0                        2                        0.20009236650955958      0                        2                        0.1944488190703068       0                        2                        0.1890504988609544       0
0.133731320840983         0                        2                        0.133731320840983        0                        2                        0.13091024795633227      0                        2                        0.12797653376581852      0                        2                        0.1250199024557315       0                        2                        0.12210266276290027      0
0.20886485552575756       0                        2                        0.20886485552575756      0                        2                        0.2031889641171992       0                        2                        0.197519679821678        0                        2                        0.19202765065469168      0                        2                        0.18676088212519054      0
0.14406105055356466       0                        2                        0.14406105055356466      0                        2                        0.14096806026278305      0                        2                        0.13775453831145412      0                        2                        0.13452279967740133      0                        2                        0.13134050990453627      0
0.2055418299041661        0                        2                        0.2055418299041661       0                        2                        0.20008990752837685      0                        2                        0.19460751272649768      0                        2                        0.1892744274508396       0                        2                        0.1841471653894052       0
0.15339394447221935       0                        2                        0.15339394447221935      0                        2                        0.15003934481621278      0                        2                        0.14655820568117287      0                        2                        0.14306563598248678      0                        2                        0.13963381564259233      0
0.20184726889534535       0                        2                        0.20184726889534535      0                        2                        0.19661834030353867      0                        2                        0.1913287701681404       0                        2                        0.18616232263053256      0                        2                        0.1811827880451733       0
0.16182615966211455       0                        2                        0.16182615966211455      0                        2                        0.15821876455144399      0                        2                        0.1544810007764834       0                        2                        0.15074077339674233      0                        2                        0.14707379166280163      0
0.19774129376829494       0                        2                        0.19774129376829494      0                        2                        0.19273559425655074      0                        2                        0.18764532612048673      0                        2                        0.18265383346545377      0                        2                        0.17783086575245038      0
0.16944058213903954       0                        2                        0.16944058213903954      0                        2                        0.16558797835872305      0                        2                        0.16160370389916007      0                        2                        0.15762818041192064      0                        2                        0.15373951965398033      0
0.1931836884736139        0                        2                        0.1931836884736139       0                        2                        0.18840237034910115      0                        2                        0.1835181773192974       0                        2                        0.1787103881415533       0                        2                        0.17405330953962628      0
0.17631866469307722       0                        2                        0.17631866469307722      0                        2                        0.1722271019698094       0                        2                        0.16800549246870106      0                        2                        0.1638061431888879       0                        2                        0.15970831488849818      0
0.18812994575685038       0                        2                        0.18812994575685038      0                        2                        0.18357507352682206      0                        2                        0.17890403053757828      0                        2                        0.1742891237953976       0                        2                        0.1698077635137466       0
0.18252591111166663       0                        2                        0.18252591111166663      0                        2                        0.1782006698387389       0                        2                        0.17375038053408354      0                        2                        0.16933815287906082      0                        2                        0.16504303787359725      0
0                         1.2056107465519048       3                        0                        1.2056107465519048       3                        0                        1.2062557243658734       3                        0                        1.2068742443998661       3                        0                        1.2074710178701804       3                        0                        1.20804758516572
0                         1.25                     3                        0                        1.25                     3                        0                        1.25                     3                        0                        1.25                     3                        0                        1.25                     3                        0                        1.25
0                         1.1654151126741643       3                        0                        1.1654151126741643       3                        0                        1.166669814664581        3                        0                        1.167869323442713        3                        0                        1.16902235250618         3                        0                        1.170132015596225
0                         1.128970352319379        3                        0                        1.128970352319379        3                        0                        1.13079925745143         3                        0                        1.132542915065433        3                        0                        1.134213527148803        3                        0                        1.1358158903710203
0                         1.0959258409875459       3                        0                        1.0959258409875459       3                        0                        1.0982939979920336       3                        0                        1.1005461779374335       3                        0                        1.10269768665653         3                        0                        1.1047551382970229
0                         1.0659640710682363       3                        0                        1.0659640710682363       3                        0                        1.068837706479658        3                        0                        1.0715644027171554       3                        0                        1.0741622790411798       3                        0                        1.0766399069311026
0                         1.0387973335262066       3                        0                        1.0387973335262066       3                        0                        1.042144113326033        3                        0                        1.0453130792042655       3                        0                        1.0483249435617967       3                        0                        1.0511903696870861
0                         1.0141648140027177       3                        0                        1.0141648140027177       3                        0                        1.0179539168154577       3                        0                        1.021534663021378        3                        0                        1.024930190238066        3                        0                        1.0281533757894563
0                         0.991830032904995        3                        0                        0.991830032904995        3                        0                        0.9960321446250558       3                        0                        0.9999958849017667       3                        0                        1.0037466870784502       3                        0                        1.0072997475746666
0                         0.9715785560842766       3                        0                        0.9715785560842766       3                        0                        0.9761658322473513       3                        0                        0.9804854117844528       3                        0                        0.9845649214333103       3                        0                        0.9884219609949462
0                         0.9532159360005505       3                        0                        0.9532159360005505       3                        0                        0.958161955159338        3                        0                        0.9628117778801798       3                        0                        0.9671951399992816       3                        0                        0.9713321058386819