% Model:              first_sketch_v06__sigmasweep_adaptivemesh_179.9CA.mph
% Version:            COMSOL 5.4.0.388
% Date:               Jul 31 2021, 19:02
% Dimension:          2
% Nodes:              366
% Expressions:        24
% Description:        Entity index, r-coordinate, z-coordinate
% Length unit:        mm
% r                       z                        dom @ t=157              r (mm) @ t=157           z (mm) @ t=157           dom @ t=167              r (mm) @ t=167           z (mm) @ t=167           dom @ t=177              r (mm) @ t=177           z (mm) @ t=177           dom @ t=187              r (mm) @ t=187           z (mm) @ t=187           dom @ t=197              r (mm) @ t=197           z (mm) @ t=197           dom @ t=207              r (mm) @ t=207           z (mm) @ t=207           dom @ t=217              r (mm) @ t=217           z (mm) @ t=217           dom @ t=227              r (mm) @ t=227           z (mm) @ t=227
0                         0                        1                        0                        0                        1                        0                        0                        1                        0                        0                        1                        0                        0                        1                        0                        0                        1                        0                        0                        1                        0                        0                        1                        0                        0
0                         0.03235841820533152      1                        0                        0.03235841820533152      1                        0                        0.0331500651514419       1                        0                        0.033877558124431426     1                        0                        0.0344914610622311       1                        0                        0.034975850980055054     1                        0                        0.03533969062266528      1                        0                        0.03560115504208818      1                        0                        0.03577904445151888
0                         0.06801896340165764      1                        0                        0.06801896340165764      1                        0                        0.06966801462519293      1                        0                        0.07118072499629803      1                        0                        0.07246122726542789      1                        0                        0.07348015141492374      1                        0                        0.07425575551613948      1                        0                        0.07482392736749618      1                        0                        0.07522188826950861
0                         0.1069368994083121       1                        0                        0.1069368994083121       1                        0                        0.1094887239943189       1                        0                        0.1118231481349482       1                        0                        0.11380931029280052      1                        0                        0.1154107710285962       1                        0                        0.11665501131880203      1                        0                        0.1175930329305561       1                        0                        0.11827779095554083
0                         0.1476504326120122       1                        0                        0.1476504326120122       1                        0                        0.15110000786859118      1                        0                        0.1542463105245822       1                        0                        0.15694026714041118      1                        0                        0.15914606886294194      1                        0                        0.160899867408845        1                        0                        0.1622639377180755       1                        0                        0.16330276406061897
0                         0.19015127801421702      1                        0                        0.19015127801421702      1                        0                        0.19448451117111534      1                        0                        0.19842651836338865      1                        0                        0.20182567011418207      1                        0                        0.20465279942591424      1                        0                        0.20695202005513896      1                        0                        0.20879355764034843      1                        0                        0.21024968279990908
0                         0.23465412575732897      1                        0                        0.23465412575732897      1                        0                        0.2398583291797732       1                        0                        0.2445839432853528       1                        0                        0.24868898625903604      1                        0                        0.2521546121591507       1                        0                        0.25503200880076765      1                        0                        0.2573968108956386       1                        0                        0.2593262312934653
0                         0.2819392282727709       1                        0                        0.2819392282727709       1                        0                        0.28801639613665025      1                        0                        0.29352918859652105      1                        0                        0.2983541499694733       1                        0                        0.30248481633088653      1                        0                        0.30597856549902236      1                        0                        0.3089145733787674       1                        0                        0.31137294214674494
0                         0.3326920518358302       1                        0                        0.3326920518358302       1                        0                        0.3396570066282248       1                        0                        0.3459738597250604       1                        0                        0.351543966891804        1                        0                        0.3563744101343036       1                        0                        0.36052800998986584      1                        0                        0.3640861012894197       1                        0                        0.36713015252031944
0                         0.38101529432725934      1                        0                        0.38101529432725934      1                        0                        0.38878679497735275      1                        0                        0.3958378616705963       1                        0                        0.4020955939813587       1                        0                        0.4075797044674807       1                        0                        0.4123573797303432       1                        0                        0.4165110063699048       1                        0                        0.42012227542841596
0                         0.42507933342486964      1                        0                        0.42507933342486964      1                        0                        0.4335591898185007       1                        0                        0.4412580018296233       1                        0                        0.44812693110190804      1                        0                        0.45419689662035406      1                        0                        0.45953864605441574      1                        0                        0.4642350173714812       1                        0                        0.46836731781121893
0                         0.4650732966260266       1                        0                        0.4650732966260266       1                        0                        0.47417690016636654      1                        0                        0.48244813833261         1                        0                        0.4898600081353345       1                        0                        0.4964533659709933       1                        0                        0.5023020075105549       1                        0                        0.5074889482010105       1                        0                        0.5120948373823574
0                         0.5013731226641204       1                        0                        0.5013731226641204       1                        0                        0.5110288431766475       1                        0                        0.5198081473127476       1                        0                        0.527703656394816        1                        0                        0.5347650922579464       1                        0                        0.5410689603385384       1                        0                        0.546698351631392        1                        0                        0.5517331630411093
0                         0.5343200251940349       1                        0                        0.5343200251940349       1                        0                        0.544466301380455        1                        0                        0.5536979240987315       1                        0                        0.5620250963572634       1                        0                        0.5695054890925445       1                        0                        0.5762180729999838       1                        0                        0.5822459969945558       1                        0                        0.587668405878126
0                         0.5642237010566489       1                        0                        0.5642237010566489       1                        0                        0.5748070585219017       1                        0                        0.5844422750761457       1                        0                        0.5931553025772645       1                        0                        0.6010109655131635       1                        0                        0.60809050422335         1                        0                        0.6144771446204973       1                        0                        0.6202493269372483
0                         0.5913652427820465       1                        0                        0.5913652427820465       1                        0                        0.6023388771089194       1                        0                        0.6123348393297904       1                        0                        0.6213932054579889       1                        0                        0.6295852534112721       1                        0                        0.6369943225205259       1                        0                        0.6437037460125652       1                        0                        0.6497913270396626
0                         0.6159997819047676       1                        0                        0.6159997819047676       1                        0                        0.6273224955769214       1                        0                        0.637641357844909        1                        0                        0.647009134790715        1                        0                        0.6555029350432461       1                        0                        0.6632080391165699       1                        0                        0.6702079162199276       1                        0                        0.6765798045742117
0                         0.6383588713912988       1                        0                        0.6383588713912988       1                        0                        0.6499942506910833       1                        0                        0.6606024794376114       1                        0                        0.6702477485060088       1                        0                        0.6790124391945727       1                        0                        0.6869836227680918       1                        0                        0.6942449257585858       1                        0                        0.700873090171327
0                         0.6586527010510892       1                        0                        0.6586527010510892       1                        0                        0.6705684570579115       1                        0                        0.6814362665753316       1                        0                        0.6913306269831535       1                        0                        0.7003386895628153       1                        0                        0.7085491713399457       1                        0                        0.7160458685113752       1                        0                        0.7229050883784455
0                         0.6770720150229065       1                        0                        0.6770720150229065       1                        0                        0.6892394443820818       1                        0                        0.7003403263592277       1                        0                        0.7104584736399446       1                        0                        0.7196853531435669       1                        0                        0.7281111879495752       1                        0                        0.7358199476903566       1                        0                        0.7428875580218329
0                         0.6937899746799276       1                        0                        0.6937899746799276       1                        0                        0.7061835102446976       1                        0                        0.7174938353996332       1                        0                        0.7278131965580018       1                        0                        0.7372369647853497       1                        0                        0.7458567354039053       1                        0                        0.7537566480871911       1                        0                        0.7610122916016928
0                         0.7089637110133684       1                        0                        0.7089637110133684       1                        0                        0.7215605409910837       1                        0                        0.7330592169592165       1                        0                        0.7435596321183338       1                        0                        0.7531606885864078       1                        0                        0.7619552268305027       1                        0                        0.7700275477268694       1                        0                        0.7774529404473659
0                         0.7227358707618511       1                        0                        0.7227358707618511       1                        0                        0.735515613663225        1                        0                        0.747183790063277        1                        0                        0.7578472349826679       1                        0                        0.7676080431795276       1                        0                        0.7765601806363077       1                        0                        0.7847880968417942       1                        0                        0.7923668123217349
0                         0.7352359190629939       1                        0                        0.7352359190629939       1                        0                        0.7481803427701124       1                        0                        0.7600011543791235       1                        0                        0.7708114970778215       1                        0                        0.7807163513281057       1                        0                        0.7898106970189608       1                        0                        0.7981791173923466       1                        0                        0.8058963900752457
0                         0.7465813354724874       1                        0                        0.7465813354724874       1                        0                        0.759674112825897        1                        0                        0.7716324549569606       1                        0                        0.7825752419313361       1                        0                        0.7926100616267294       1                        0                        0.8018328045629166       1                        0                        0.810328171814363        1                        0                        0.8181707197056928
0                         0.7568787888744105       1                        0                        0.7568787888744105       1                        0                        0.7701052851640285       1                        0                        0.7821876176825469       1                        0                        0.793249886970318        1                        0                        0.8034020361635182       1                        0                        0.8127407715584231       1                        0                        0.8213508960077736       1                        0                        0.8293067628785175
0                         0.7662251009530824       1                        0                        0.7662251009530824       1                        0                        0.7795721873810977       1                        0                        0.7917663622962042       1                        0                        0.8029364788740329       1                        0                        0.8131946071926811       1                        0                        0.8226381827849785       1                        0                        0.8313520947704292       1                        0                        0.8394105093907119
0                         0.7747243887186335       1                        0                        0.7747243887186335       1                        0                        0.7881804851449368       1                        0                        0.8004757867079701       1                        0                        0.8117434829016222       1                        0                        0.822097567831809        1                        0                        0.8316361289948887       1                        0                        0.8404441273837184       1                        0                        0.8485955556746478
0.29885409010565495       0                        2                        0.29885409010565495      0                        2                        0.28697548485729035      0                        2                        0.27560010142999525      0                        2                        0.26500482953443355      0                        2                        0.2551410206921875       0                        2                        0.24594516230687608      0                        2                        0.23735662823039597      0                        2                        0.22932045158333886      0
0.29700979916658077       0                        2                        0.29700979916658077      0                        2                        0.285602946353017        0                        2                        0.27445192386589984      0                        2                        0.26400988488095856      0                        2                        0.25426329693561284      0                        2                        0.24516154942184454      0                        2                        0.23665057270955886      0                        2                        0.22867941066669192      0
0.3005079398278953        0                        2                        0.3005079398278953       0                        2                        0.2879608323873153       0                        2                        0.2763779793226445       0                        2                        0.26565305834936953      0                        2                        0.25569559134622094      0                        2                        0.2464274586238132       0                        2                        0.2377808821095082       0                        2                        0.22969672876121222      0
0.2949718444149624        0                        2                        0.2949718444149624       0                        2                        0.28396875499761964      0                        2                        0.27304401656982785      0                        2                        0.26276245536304427      0                        2                        0.25314191880053316      0                        2                        0.24414380464422084      0                        2                        0.2357202246164327       0                        2                        0.22782399660559247      0
0.292720937255391         0                        2                        0.292720937255391        0                        2                        0.2820847228662075       0                        2                        0.2713920105271765       0                        2                        0.2612798603436561       0                        2                        0.2517946045628076       0                        2                        0.24290900416840192      0                        2                        0.23458122685648736      0                        2                        0.22676788845485196      0
0.29023212119237796       0                        2                        0.29023212119237796      0                        2                        0.2799396539454154       0                        2                        0.26948604893798567      0                        2                        0.2595532436910891       0                        2                        0.2502135286594238       0                        2                        0.2414503142669056       0                        2                        0.23322759788638153      0                        2                        0.22550575383811333      0
0.28748277880221357       0                        2                        0.28748277880221357      0                        2                        0.2775183857619181       0                        2                        0.26731131958596605      0                        2                        0.2575679642161384       0                        2                        0.24838430875809417      0                        2                        0.23975373905683303      0                        2                        0.23164581781312185      0                        2                        0.22402459467503175      0
0.2844467659276786        0                        2                        0.2844467659276786       0                        2                        0.27479986956522556      0                        2                        0.26484722200985467      0                        2                        0.2553037533635255       0                        2                        0.24628699847306817      0                        2                        0.2377997073978587       0                        2                        0.2298167393709566       0                        2                        0.22230572067576837      0
0.2810918741857773        0                        2                        0.2810918741857773       0                        2                        0.27175587900125053      0                        2                        0.2620662182027317       0                        2                        0.25273372777894165      0                        2                        0.24389532369830808      0                        2                        0.23556256230560602      0                        2                        0.22771533245167977      0                        2                        0.2203247267856656       0
0.2773852590973355        0                        2                        0.2773852590973355       0                        2                        0.2683563954689698       0                        2                        0.25893870868016466      0                        2                        0.2498288260616995       0                        2                        0.2411807662899336       0                        2                        0.23301435800620957      0                        2                        0.2253142500389371       0                        2                        0.21805487464159234      0
0.27329226199153          0                        2                        0.27329226199153         0                        2                        0.2645689601512036       0                        2                        0.25543253381749415      0                        2                        0.24655738029265972      0                        2                        0.2381121898453271       0                        2                        0.23012452999317062      0                        2                        0.22258353737139575      0                        2                        0.21546684085629794      0
0.26876831158320735       0                        2                        0.26876831158320735      0                        2                        0.26035130575774246      0                        2                        0.2515061389417379       0                        2                        0.24287869945859275      0                        2                        0.23464978463451136      0                        2                        0.22685415743005047      0                        2                        0.21948517455677838      0                        2                        0.21252350963023497      0
0.263772339731325         0                        2                        0.263772339731325        0                        2                        0.255663892411723        0                        2                        0.24712020374969998      0                        2                        0.23875391651922         0                        2                        0.2307552361318143       0                        2                        0.22316553267840675      0                        2                        0.21598211010115034      0                        2                        0.20918852300375484      0
0.2582523994536561        0                        2                        0.2582523994536561       0                        2                        0.25045658238952195      0                        2                        0.24222525653992716      0                        2                        0.2341343805744202       0                        2                        0.22638079291736835      0                        2                        0.21901182889930546      0                        2                        0.2120284639907384       0                        2                        0.20541696452729608      0
0.25215508104402024       0                        2                        0.25215508104402024      0                        2                        0.2446774616286473       0                        2                        0.23676989083747726      0                        2                        0.22896934464284735      0                        2                        0.22147648868132053      0                        2                        0.21434390871962442      0                        2                        0.207575965182161        0                        2                        0.20116146060095677      0
0.24541883821821636       0                        2                        0.24541883821821636      0                        2                        0.23826657811468938      0                        2                        0.23069488387884998      0                        2                        0.22320040828483093      0                        2                        0.21598486794509303      0                        2                        0.20910530500377544      0                        2                        0.20256916308952755      0                        2                        0.1963676008433329       0
0.2379781061988677        0                        2                        0.2379781061988677       0                        2                        0.23115985090567853      0                        2                        0.22393687586408204      0                        2                        0.2167649879554085       0                        2                        0.20984426483456514      0                        2                        0.2032353273404775       0                        2                        0.19694837814851252      0                        2                        0.1909767462199388       0